MODEL 1
REMARK VINA RESULT:      -8.3      0.000      0.000
REMARK SMILES C=CC(=C)CCC[C@@H](C)CCC[C@H](C)CCCC(C)C
REMARK SMILES IDX 11 1 12 2 13 3 14 4 15 5 16 6 17 7 18 8 19 9 20 10 10 11
REMARK SMILES IDX 8 12 9 13 7 14 6 15 5 16 3 17 4 18 2 19 1 20
REMARK H PARENT
ROOT
ATOM      1  C   UNL     1      51.732  46.437  17.018  1.00  0.00     0.001 C 
ENDROOT
BRANCH   1   2
ATOM      2  C   UNL     1      51.797  46.325  18.547  1.00  0.00     0.003 C 
BRANCH   2   3
ATOM      3  C   UNL     1      52.717  47.340  19.263  1.00  0.00    -0.014 C 
ATOM      4  C   UNL     1      52.982  48.570  18.390  1.00  0.00     0.007 C 
BRANCH   3   5
ATOM      5  C   UNL     1      54.031  46.629  19.661  1.00  0.00     0.003 C 
BRANCH   5   6
ATOM      6  C   UNL     1      54.321  46.669  21.166  1.00  0.00     0.001 C 
BRANCH   6   7
ATOM      7  C   UNL     1      53.080  47.098  21.957  1.00  0.00     0.003 C 
BRANCH   7   8
ATOM      8  C   UNL     1      53.298  48.370  22.796  1.00  0.00    -0.017 C 
ATOM      9  C   UNL     1      52.414  49.531  22.340  1.00  0.00     0.007 C 
ATOM     10  C   UNL     1      54.770  48.787  22.733  1.00  0.00     0.007 C 
ENDBRANCH   7   8
ENDBRANCH   6   7
ENDBRANCH   5   6
ENDBRANCH   3   5
ENDBRANCH   2   3
ENDBRANCH   1   2
BRANCH   1  11
ATOM     11  C   UNL     1      52.866  45.743  16.253  1.00  0.00     0.003 C 
BRANCH  11  12
ATOM     12  C   UNL     1      52.496  44.410  15.569  1.00  0.00    -0.014 C 
ATOM     13  C   UNL     1      50.979  44.192  15.549  1.00  0.00     0.007 C 
BRANCH  12  14
ATOM     14  C   UNL     1      53.166  43.205  16.267  1.00  0.00     0.003 C 
BRANCH  14  15
ATOM     15  C   UNL     1      54.184  43.604  17.343  1.00  0.00     0.005 C 
BRANCH  15  16
ATOM     16  C   UNL     1      54.905  42.371  17.909  1.00  0.00     0.035 C 
BRANCH  16  17
ATOM     17  C   UNL     1      54.883  42.184  19.417  1.00  0.00    -0.056 C 
ATOM     18  C   UNL     1      55.149  43.170  20.294  1.00  0.00     0.012 C 
BRANCH  17  19
ATOM     19  C   UNL     1      54.555  40.858  19.940  1.00  0.00    -0.005 C 
ATOM     20  C   UNL     1      53.640  40.564  20.871  1.00  0.00     0.009 C 
ENDBRANCH  17  19
ENDBRANCH  16  17
ENDBRANCH  15  16
ENDBRANCH  14  15
ENDBRANCH  12  14
ENDBRANCH  11  12
ENDBRANCH   1  11
TORSDOF 13
ENDMDL
MODEL 2
REMARK VINA RESULT:      -8.2      0.969      5.795
REMARK SMILES C=CC(=C)CCC[C@@H](C)CCC[C@H](C)CCCC(C)C
REMARK SMILES IDX 11 1 12 2 13 3 14 4 15 5 16 6 17 7 18 8 19 9 20 10 10 11
REMARK SMILES IDX 8 12 9 13 7 14 6 15 5 16 3 17 4 18 2 19 1 20
REMARK H PARENT
ROOT
ATOM      1  C   UNL     1      51.580  46.491  17.031  1.00  0.00     0.001 C 
ENDROOT
BRANCH   1   2
ATOM      2  C   UNL     1      52.810  45.726  16.526  1.00  0.00     0.003 C 
BRANCH   2   3
ATOM      3  C   UNL     1      52.527  44.515  15.607  1.00  0.00    -0.014 C 
ATOM      4  C   UNL     1      51.027  44.228  15.505  1.00  0.00     0.007 C 
BRANCH   3   5
ATOM      5  C   UNL     1      53.307  43.291  16.139  1.00  0.00     0.003 C 
BRANCH   5   6
ATOM      6  C   UNL     1      54.269  43.624  17.286  1.00  0.00     0.001 C 
BRANCH   6   7
ATOM      7  C   UNL     1      54.866  42.349  17.892  1.00  0.00     0.003 C 
BRANCH   7   8
ATOM      8  C   UNL     1      54.707  42.264  19.421  1.00  0.00    -0.017 C 
ATOM      9  C   UNL     1      55.142  43.548  20.128  1.00  0.00     0.007 C 
ATOM     10  C   UNL     1      55.514  41.080  19.962  1.00  0.00     0.007 C 
ENDBRANCH   7   8
ENDBRANCH   6   7
ENDBRANCH   5   6
ENDBRANCH   3   5
ENDBRANCH   2   3
ENDBRANCH   1   2
BRANCH   1  11
ATOM     11  C   UNL     1      51.532  46.747  18.542  1.00  0.00     0.003 C 
BRANCH  11  12
ATOM     12  C   UNL     1      52.834  46.448  19.315  1.00  0.00    -0.014 C 
ATOM     13  C   UNL     1      52.549  46.091  20.778  1.00  0.00     0.007 C 
BRANCH  12  14
ATOM     14  C   UNL     1      53.812  47.643  19.272  1.00  0.00     0.003 C 
BRANCH  14  15
ATOM     15  C   UNL     1      55.275  47.250  19.512  1.00  0.00     0.005 C 
BRANCH  15  16
ATOM     16  C   UNL     1      55.886  48.062  20.665  1.00  0.00     0.035 C 
BRANCH  16  17
ATOM     17  C   UNL     1      55.321  47.826  22.056  1.00  0.00    -0.056 C 
ATOM     18  C   UNL     1      55.399  46.649  22.703  1.00  0.00     0.012 C 
BRANCH  17  19
ATOM     19  C   UNL     1      54.656  48.944  22.725  1.00  0.00    -0.005 C 
ATOM     20  C   UNL     1      53.338  49.142  22.844  1.00  0.00     0.009 C 
ENDBRANCH  17  19
ENDBRANCH  16  17
ENDBRANCH  15  16
ENDBRANCH  14  15
ENDBRANCH  12  14
ENDBRANCH  11  12
ENDBRANCH   1  11
TORSDOF 13
ENDMDL
MODEL 3
REMARK VINA RESULT:      -8.1      1.267      2.411
REMARK SMILES C=CC(=C)CCC[C@@H](C)CCC[C@H](C)CCCC(C)C
REMARK SMILES IDX 11 1 12 2 13 3 14 4 15 5 16 6 17 7 18 8 19 9 20 10 10 11
REMARK SMILES IDX 8 12 9 13 7 14 6 15 5 16 3 17 4 18 2 19 1 20
REMARK H PARENT
ROOT
ATOM      1  C   UNL     1      52.430  45.051  15.603  1.00  0.00     0.001 C 
ENDROOT
BRANCH   1   2
ATOM      2  C   UNL     1      51.345  45.560  16.561  1.00  0.00     0.003 C 
BRANCH   2   3
ATOM      3  C   UNL     1      51.693  46.837  17.361  1.00  0.00    -0.014 C 
ATOM      4  C   UNL     1      53.109  47.325  17.050  1.00  0.00     0.007 C 
BRANCH   3   5
ATOM      5  C   UNL     1      51.506  46.548  18.868  1.00  0.00     0.003 C 
BRANCH   5   6
ATOM      6  C   UNL     1      52.527  47.260  19.764  1.00  0.00     0.001 C 
BRANCH   6   7
ATOM      7  C   UNL     1      53.032  46.329  20.872  1.00  0.00     0.003 C 
BRANCH   7   8
ATOM      8  C   UNL     1      54.505  46.569  21.251  1.00  0.00    -0.017 C 
ATOM      9  C   UNL     1      54.653  47.363  22.549  1.00  0.00     0.007 C 
ATOM     10  C   UNL     1      55.220  47.303  20.113  1.00  0.00     0.007 C 
ENDBRANCH   7   8
ENDBRANCH   6   7
ENDBRANCH   5   6
ENDBRANCH   3   5
ENDBRANCH   2   3
ENDBRANCH   1   2
BRANCH   1  11
ATOM     11  C   UNL     1      52.969  43.645  15.898  1.00  0.00     0.003 C 
BRANCH  11  12
ATOM     12  C   UNL     1      54.238  43.585  16.774  1.00  0.00    -0.014 C 
ATOM     13  C   UNL     1      55.055  42.318  16.493  1.00  0.00     0.007 C 
BRANCH  12  14
ATOM     14  C   UNL     1      53.897  43.637  18.280  1.00  0.00     0.003 C 
BRANCH  14  15
ATOM     15  C   UNL     1      55.129  43.759  19.186  1.00  0.00     0.005 C 
BRANCH  15  16
ATOM     16  C   UNL     1      54.947  42.951  20.481  1.00  0.00     0.035 C 
BRANCH  16  17
ATOM     17  C   UNL     1      54.863  41.439  20.350  1.00  0.00    -0.056 C 
ATOM     18  C   UNL     1      55.760  40.698  19.674  1.00  0.00     0.012 C 
BRANCH  17  19
ATOM     19  C   UNL     1      53.742  40.756  20.995  1.00  0.00    -0.005 C 
ATOM     20  C   UNL     1      53.759  39.548  21.572  1.00  0.00     0.009 C 
ENDBRANCH  17  19
ENDBRANCH  16  17
ENDBRANCH  15  16
ENDBRANCH  14  15
ENDBRANCH  12  14
ENDBRANCH  11  12
ENDBRANCH   1  11
TORSDOF 13
ENDMDL
MODEL 4
REMARK VINA RESULT:      -8.1      1.122      5.076
REMARK SMILES C=CC(=C)CCC[C@@H](C)CCC[C@H](C)CCCC(C)C
REMARK SMILES IDX 11 1 12 2 13 3 14 4 15 5 16 6 17 7 18 8 19 9 20 10 10 11
REMARK SMILES IDX 8 12 9 13 7 14 6 15 5 16 3 17 4 18 2 19 1 20
REMARK H PARENT
ROOT
ATOM      1  C   UNL     1      54.777  42.911  16.991  1.00  0.00     0.001 C 
ENDROOT
BRANCH   1   2
ATOM      2  C   UNL     1      53.465  42.963  16.198  1.00  0.00     0.003 C 
BRANCH   2   3
ATOM      3  C   UNL     1      52.558  44.186  16.465  1.00  0.00    -0.014 C 
ATOM      4  C   UNL     1      51.305  44.157  15.586  1.00  0.00     0.007 C 
BRANCH   3   5
ATOM      5  C   UNL     1      53.382  45.476  16.242  1.00  0.00     0.003 C 
BRANCH   5   6
ATOM      6  C   UNL     1      52.641  46.757  16.642  1.00  0.00     0.001 C 
BRANCH   6   7
ATOM      7  C   UNL     1      53.327  47.444  17.828  1.00  0.00     0.003 C 
BRANCH   7   8
ATOM      8  C   UNL     1      52.481  47.436  19.115  1.00  0.00    -0.017 C 
ATOM      9  C   UNL     1      51.196  46.622  18.965  1.00  0.00     0.007 C 
ATOM     10  C   UNL     1      52.138  48.873  19.518  1.00  0.00     0.007 C 
ENDBRANCH   7   8
ENDBRANCH   6   7
ENDBRANCH   5   6
ENDBRANCH   3   5
ENDBRANCH   2   3
ENDBRANCH   1   2
BRANCH   1  11
ATOM     11  C   UNL     1      54.720  42.147  18.320  1.00  0.00     0.003 C 
BRANCH  11  12
ATOM     12  C   UNL     1      55.153  42.943  19.570  1.00  0.00    -0.014 C 
ATOM     13  C   UNL     1      54.534  42.363  20.847  1.00  0.00     0.007 C 
BRANCH  12  14
ATOM     14  C   UNL     1      54.770  44.435  19.459  1.00  0.00     0.003 C 
BRANCH  14  15
ATOM     15  C   UNL     1      54.325  45.056  20.789  1.00  0.00     0.005 C 
BRANCH  15  16
ATOM     16  C   UNL     1      55.475  45.830  21.452  1.00  0.00     0.035 C 
BRANCH  16  17
ATOM     17  C   UNL     1      55.382  47.348  21.454  1.00  0.00    -0.056 C 
ATOM     18  C   UNL     1      55.875  48.126  20.473  1.00  0.00     0.012 C 
BRANCH  17  19
ATOM     19  C   UNL     1      54.720  47.993  22.587  1.00  0.00    -0.005 C 
ATOM     20  C   UNL     1      53.403  48.153  22.765  1.00  0.00     0.009 C 
ENDBRANCH  17  19
ENDBRANCH  16  17
ENDBRANCH  15  16
ENDBRANCH  14  15
ENDBRANCH  12  14
ENDBRANCH  11  12
ENDBRANCH   1  11
TORSDOF 13
ENDMDL
MODEL 5
REMARK VINA RESULT:      -8.0      0.783      5.938
REMARK SMILES C=CC(=C)CCC[C@@H](C)CCC[C@H](C)CCCC(C)C
REMARK SMILES IDX 11 1 12 2 13 3 14 4 15 5 16 6 17 7 18 8 19 9 20 10 10 11
REMARK SMILES IDX 8 12 9 13 7 14 6 15 5 16 3 17 4 18 2 19 1 20
REMARK H PARENT
ROOT
ATOM      1  C   UNL     1      52.243  46.326  16.822  1.00  0.00     0.001 C 
ENDROOT
BRANCH   1   2
ATOM      2  C   UNL     1      53.082  45.428  15.904  1.00  0.00     0.003 C 
BRANCH   2   3
ATOM      3  C   UNL     1      52.481  44.041  15.578  1.00  0.00    -0.014 C 
ATOM      4  C   UNL     1      50.951  44.084  15.560  1.00  0.00     0.007 C 
BRANCH   3   5
ATOM      5  C   UNL     1      53.012  43.013  16.603  1.00  0.00     0.003 C 
BRANCH   5   6
ATOM      6  C   UNL     1      54.396  43.359  17.163  1.00  0.00     0.001 C 
BRANCH   6   7
ATOM      7  C   UNL     1      54.974  42.190  17.968  1.00  0.00     0.003 C 
BRANCH   7   8
ATOM      8  C   UNL     1      54.518  42.174  19.439  1.00  0.00    -0.017 C 
ATOM      9  C   UNL     1      55.282  43.181  20.300  1.00  0.00     0.007 C 
ATOM     10  C   UNL     1      54.688  40.767  20.019  1.00  0.00     0.007 C 
ENDBRANCH   7   8
ENDBRANCH   6   7
ENDBRANCH   5   6
ENDBRANCH   3   5
ENDBRANCH   2   3
ENDBRANCH   1   2
BRANCH   1  11
ATOM     11  C   UNL     1      52.971  47.543  17.407  1.00  0.00     0.003 C 
BRANCH  11  12
ATOM     12  C   UNL     1      53.499  47.380  18.848  1.00  0.00    -0.014 C 
ATOM     13  C   UNL     1      54.858  46.672  18.872  1.00  0.00     0.007 C 
BRANCH  12  14
ATOM     14  C   UNL     1      52.508  46.593  19.734  1.00  0.00     0.003 C 
BRANCH  14  15
ATOM     15  C   UNL     1      53.138  46.035  21.017  1.00  0.00     0.005 C 
BRANCH  15  16
ATOM     16  C   UNL     1      52.685  46.832  22.250  1.00  0.00     0.035 C 
BRANCH  16  17
ATOM     17  C   UNL     1      53.429  48.121  22.557  1.00  0.00    -0.056 C 
ATOM     18  C   UNL     1      52.826  49.316  22.695  1.00  0.00     0.012 C 
BRANCH  17  19
ATOM     19  C   UNL     1      54.882  48.055  22.709  1.00  0.00    -0.005 C 
ATOM     20  C   UNL     1      55.804  48.459  21.826  1.00  0.00     0.009 C 
ENDBRANCH  17  19
ENDBRANCH  16  17
ENDBRANCH  15  16
ENDBRANCH  14  15
ENDBRANCH  12  14
ENDBRANCH  11  12
ENDBRANCH   1  11
TORSDOF 13
ENDMDL
MODEL 6
REMARK VINA RESULT:      -8.0      1.467      5.675
REMARK SMILES C=CC(=C)CCC[C@@H](C)CCC[C@H](C)CCCC(C)C
REMARK SMILES IDX 11 1 12 2 13 3 14 4 15 5 16 6 17 7 18 8 19 9 20 10 10 11
REMARK SMILES IDX 8 12 9 13 7 14 6 15 5 16 3 17 4 18 2 19 1 20
REMARK H PARENT
ROOT
ATOM      1  C   UNL     1      54.543  44.146  16.774  1.00  0.00     0.001 C 
ENDROOT
BRANCH   1   2
ATOM      2  C   UNL     1      54.890  44.633  18.186  1.00  0.00     0.003 C 
BRANCH   2   3
ATOM      3  C   UNL     1      54.499  43.687  19.345  1.00  0.00    -0.014 C 
ATOM      4  C   UNL     1      55.094  44.155  20.676  1.00  0.00     0.007 C 
BRANCH   3   5
ATOM      5  C   UNL     1      54.949  42.251  18.991  1.00  0.00     0.003 C 
BRANCH   5   6
ATOM      6  C   UNL     1      55.525  41.474  20.181  1.00  0.00     0.001 C 
BRANCH   6   7
ATOM      7  C   UNL     1      54.872  40.093  20.306  1.00  0.00     0.003 C 
BRANCH   7   8
ATOM      8  C   UNL     1      53.975  39.948  21.549  1.00  0.00    -0.017 C 
ATOM      9  C   UNL     1      52.491  40.121  21.224  1.00  0.00     0.007 C 
ATOM     10  C   UNL     1      54.393  40.970  22.610  1.00  0.00     0.007 C 
ENDBRANCH   7   8
ENDBRANCH   6   7
ENDBRANCH   5   6
ENDBRANCH   3   5
ENDBRANCH   2   3
ENDBRANCH   1   2
BRANCH   1  11
ATOM     11  C   UNL     1      53.507  44.987  16.017  1.00  0.00     0.003 C 
BRANCH  11  12
ATOM     12  C   UNL     1      52.102  45.051  16.653  1.00  0.00    -0.014 C 
ATOM     13  C   UNL     1      51.035  44.470  15.717  1.00  0.00     0.007 C 
BRANCH  12  14
ATOM     14  C   UNL     1      51.708  46.498  17.026  1.00  0.00     0.003 C 
BRANCH  14  15
ATOM     15  C   UNL     1      51.089  46.626  18.423  1.00  0.00     0.005 C 
BRANCH  15  16
ATOM     16  C   UNL     1      52.160  46.504  19.518  1.00  0.00     0.035 C 
BRANCH  16  17
ATOM     17  C   UNL     1      52.974  47.748  19.835  1.00  0.00    -0.056 C 
ATOM     18  C   UNL     1      52.489  48.804  20.514  1.00  0.00     0.012 C 
BRANCH  17  19
ATOM     19  C   UNL     1      54.361  47.796  19.374  1.00  0.00    -0.005 C 
ATOM     20  C   UNL     1      55.457  47.934  20.131  1.00  0.00     0.009 C 
ENDBRANCH  17  19
ENDBRANCH  16  17
ENDBRANCH  15  16
ENDBRANCH  14  15
ENDBRANCH  12  14
ENDBRANCH  11  12
ENDBRANCH   1  11
TORSDOF 13
ENDMDL
MODEL 7
REMARK VINA RESULT:      -8.0      1.034      5.778
REMARK SMILES C=CC(=C)CCC[C@@H](C)CCC[C@H](C)CCCC(C)C
REMARK SMILES IDX 11 1 12 2 13 3 14 4 15 5 16 6 17 7 18 8 19 9 20 10 10 11
REMARK SMILES IDX 8 12 9 13 7 14 6 15 5 16 3 17 4 18 2 19 1 20
REMARK H PARENT
ROOT
ATOM      1  C   UNL     1      52.276  44.738  15.757  1.00  0.00     0.001 C 
ENDROOT
BRANCH   1   2
ATOM      2  C   UNL     1      52.894  43.354  15.994  1.00  0.00     0.003 C 
BRANCH   2   3
ATOM      3  C   UNL     1      54.211  43.329  16.803  1.00  0.00    -0.014 C 
ATOM      4  C   UNL     1      55.149  42.223  16.314  1.00  0.00     0.007 C 
BRANCH   3   5
ATOM      5  C   UNL     1      53.873  43.169  18.303  1.00  0.00     0.003 C 
BRANCH   5   6
ATOM      6  C   UNL     1      54.849  43.895  19.236  1.00  0.00     0.001 C 
BRANCH   6   7
ATOM      7  C   UNL     1      55.152  43.052  20.481  1.00  0.00     0.003 C 
BRANCH   7   8
ATOM      8  C   UNL     1      54.659  41.597  20.371  1.00  0.00    -0.017 C 
ATOM      9  C   UNL     1      54.278  41.004  21.728  1.00  0.00     0.007 C 
ATOM     10  C   UNL     1      55.740  40.733  19.715  1.00  0.00     0.007 C 
ENDBRANCH   7   8
ENDBRANCH   6   7
ENDBRANCH   5   6
ENDBRANCH   3   5
ENDBRANCH   2   3
ENDBRANCH   1   2
BRANCH   1  11
ATOM     11  C   UNL     1      53.175  45.934  16.095  1.00  0.00     0.003 C 
BRANCH  11  12
ATOM     12  C   UNL     1      52.878  46.639  17.435  1.00  0.00    -0.014 C 
ATOM     13  C   UNL     1      51.448  46.357  17.912  1.00  0.00     0.007 C 
BRANCH  12  14
ATOM     14  C   UNL     1      53.080  48.167  17.335  1.00  0.00     0.003 C 
BRANCH  14  15
ATOM     15  C   UNL     1      52.916  48.899  18.673  1.00  0.00     0.005 C 
BRANCH  15  16
ATOM     16  C   UNL     1      53.857  48.319  19.741  1.00  0.00     0.035 C 
BRANCH  16  17
ATOM     17  C   UNL     1      53.224  47.835  21.036  1.00  0.00    -0.056 C 
ATOM     18  C   UNL     1      53.034  46.537  21.333  1.00  0.00     0.012 C 
BRANCH  17  19
ATOM     19  C   UNL     1      52.799  48.841  22.009  1.00  0.00    -0.005 C 
ATOM     20  C   UNL     1      53.320  49.058  23.222  1.00  0.00     0.009 C 
ENDBRANCH  17  19
ENDBRANCH  16  17
ENDBRANCH  15  16
ENDBRANCH  14  15
ENDBRANCH  12  14
ENDBRANCH  11  12
ENDBRANCH   1  11
TORSDOF 13
ENDMDL
MODEL 8
REMARK VINA RESULT:      -8.0      1.592      4.979
REMARK SMILES C=CC(=C)CCC[C@@H](C)CCC[C@H](C)CCCC(C)C
REMARK SMILES IDX 11 1 12 2 13 3 14 4 15 5 16 6 17 7 18 8 19 9 20 10 10 11
REMARK SMILES IDX 8 12 9 13 7 14 6 15 5 16 3 17 4 18 2 19 1 20
REMARK H PARENT
ROOT
ATOM      1  C   UNL     1      53.519  48.327  18.839  1.00  0.00     0.001 C 
ENDROOT
BRANCH   1   2
ATOM      2  C   UNL     1      53.068  47.828  17.460  1.00  0.00     0.003 C 
BRANCH   2   3
ATOM      3  C   UNL     1      51.635  47.254  17.381  1.00  0.00    -0.014 C 
ATOM      4  C   UNL     1      50.860  47.502  18.677  1.00  0.00     0.007 C 
BRANCH   3   5
ATOM      5  C   UNL     1      51.718  45.748  17.044  1.00  0.00     0.003 C 
BRANCH   5   6
ATOM      6  C   UNL     1      52.809  45.403  16.023  1.00  0.00     0.001 C 
BRANCH   6   7
ATOM      7  C   UNL     1      53.953  44.623  16.681  1.00  0.00     0.003 C 
BRANCH   7   8
ATOM      8  C   UNL     1      53.762  43.096  16.630  1.00  0.00    -0.017 C 
ATOM      9  C   UNL     1      55.064  42.353  16.324  1.00  0.00     0.007 C 
ATOM     10  C   UNL     1      52.707  42.740  15.578  1.00  0.00     0.007 C 
ENDBRANCH   7   8
ENDBRANCH   6   7
ENDBRANCH   5   6
ENDBRANCH   3   5
ENDBRANCH   2   3
ENDBRANCH   1   2
BRANCH   1  11
ATOM     11  C   UNL     1      54.569  47.463  19.547  1.00  0.00     0.003 C 
BRANCH  11  12
ATOM     12  C   UNL     1      54.061  46.118  20.109  1.00  0.00    -0.014 C 
ATOM     13  C   UNL     1      53.013  46.328  21.207  1.00  0.00     0.007 C 
BRANCH  12  14
ATOM     14  C   UNL     1      55.217  45.263  20.677  1.00  0.00     0.003 C 
BRANCH  14  15
ATOM     15  C   UNL     1      54.828  43.802  20.942  1.00  0.00     0.005 C 
BRANCH  15  16
ATOM     16  C   UNL     1      55.192  42.906  19.747  1.00  0.00     0.035 C 
BRANCH  16  17
ATOM     17  C   UNL     1      55.058  41.404  19.938  1.00  0.00    -0.056 C 
ATOM     18  C   UNL     1      55.997  40.518  19.561  1.00  0.00     0.012 C 
BRANCH  17  19
ATOM     19  C   UNL     1      53.838  40.899  20.568  1.00  0.00    -0.005 C 
ATOM     20  C   UNL     1      53.743  39.899  21.452  1.00  0.00     0.009 C 
ENDBRANCH  17  19
ENDBRANCH  16  17
ENDBRANCH  15  16
ENDBRANCH  14  15
ENDBRANCH  12  14
ENDBRANCH  11  12
ENDBRANCH   1  11
TORSDOF 13
ENDMDL
MODEL 9
REMARK VINA RESULT:      -7.9      1.167      6.694
REMARK SMILES C=CC(=C)CCC[C@@H](C)CCC[C@H](C)CCCC(C)C
REMARK SMILES IDX 11 1 12 2 13 3 14 4 15 5 16 6 17 7 18 8 19 9 20 10 10 11
REMARK SMILES IDX 8 12 9 13 7 14 6 15 5 16 3 17 4 18 2 19 1 20
REMARK H PARENT
ROOT
ATOM      1  C   UNL     1      51.953  46.272  18.415  1.00  0.00     0.001 C 
ENDROOT
BRANCH   1   2
ATOM      2  C   UNL     1      51.534  46.303  16.940  1.00  0.00     0.003 C 
BRANCH   2   3
ATOM      3  C   UNL     1      52.235  45.282  16.014  1.00  0.00    -0.014 C 
ATOM      4  C   UNL     1      51.280  44.164  15.588  1.00  0.00     0.007 C 
BRANCH   3   5
ATOM      5  C   UNL     1      53.481  44.724  16.739  1.00  0.00     0.003 C 
BRANCH   5   6
ATOM      6  C   UNL     1      53.504  43.194  16.836  1.00  0.00     0.001 C 
BRANCH   6   7
ATOM      7  C   UNL     1      54.784  42.704  17.523  1.00  0.00     0.003 C 
BRANCH   7   8
ATOM      8  C   UNL     1      54.595  42.390  19.019  1.00  0.00    -0.017 C 
ATOM      9  C   UNL     1      55.087  43.522  19.921  1.00  0.00     0.007 C 
ATOM     10  C   UNL     1      55.328  41.093  19.373  1.00  0.00     0.007 C 
ENDBRANCH   7   8
ENDBRANCH   6   7
ENDBRANCH   5   6
ENDBRANCH   3   5
ENDBRANCH   2   3
ENDBRANCH   1   2
BRANCH   1  11
ATOM     11  C   UNL     1      52.438  47.607  18.996  1.00  0.00     0.003 C 
BRANCH  11  12
ATOM     12  C   UNL     1      53.600  47.515  20.008  1.00  0.00    -0.014 C 
ATOM     13  C   UNL     1      54.881  46.995  19.345  1.00  0.00     0.007 C 
BRANCH  12  14
ATOM     14  C   UNL     1      53.248  46.601  21.203  1.00  0.00     0.003 C 
BRANCH  14  15
ATOM     15  C   UNL     1      53.704  47.157  22.558  1.00  0.00     0.005 C 
BRANCH  15  16
ATOM     16  C   UNL     1      54.107  48.635  22.443  1.00  0.00     0.035 C 
BRANCH  16  17
ATOM     17  C   UNL     1      53.319  49.636  23.273  1.00  0.00    -0.056 C 
ATOM     18  C   UNL     1      52.121  50.127  22.909  1.00  0.00     0.012 C 
BRANCH  17  19
ATOM     19  C   UNL     1      53.901  50.088  24.537  1.00  0.00    -0.005 C 
ATOM     20  C   UNL     1      54.612  51.204  24.742  1.00  0.00     0.009 C 
ENDBRANCH  17  19
ENDBRANCH  16  17
ENDBRANCH  15  16
ENDBRANCH  14  15
ENDBRANCH  12  14
ENDBRANCH  11  12
ENDBRANCH   1  11
TORSDOF 13
ENDMDL
MODEL 10
REMARK VINA RESULT:      -7.9      1.272      4.657
REMARK SMILES C=CC(=C)CCC[C@@H](C)CCC[C@H](C)CCCC(C)C
REMARK SMILES IDX 11 1 12 2 13 3 14 4 15 5 16 6 17 7 18 8 19 9 20 10 10 11
REMARK SMILES IDX 8 12 9 13 7 14 6 15 5 16 3 17 4 18 2 19 1 20
REMARK H PARENT
ROOT
ATOM      1  C   UNL     1      54.698  42.753  16.887  1.00  0.00     0.001 C 
ENDROOT
BRANCH   1   2
ATOM      2  C   UNL     1      54.422  42.277  18.319  1.00  0.00     0.003 C 
BRANCH   2   3
ATOM      3  C   UNL     1      55.196  43.010  19.438  1.00  0.00    -0.014 C 
ATOM      4  C   UNL     1      55.522  42.070  20.602  1.00  0.00     0.007 C 
BRANCH   3   5
ATOM      5  C   UNL     1      54.366  44.228  19.904  1.00  0.00     0.003 C 
BRANCH   5   6
ATOM      6  C   UNL     1      55.178  45.525  20.004  1.00  0.00     0.001 C 
BRANCH   6   7
ATOM      7  C   UNL     1      55.197  46.054  21.443  1.00  0.00     0.003 C 
BRANCH   7   8
ATOM      8  C   UNL     1      55.925  47.402  21.591  1.00  0.00    -0.017 C 
ATOM      9  C   UNL     1      55.167  48.383  22.486  1.00  0.00     0.007 C 
ATOM     10  C   UNL     1      56.143  48.028  20.210  1.00  0.00     0.007 C 
ENDBRANCH   7   8
ENDBRANCH   6   7
ENDBRANCH   5   6
ENDBRANCH   3   5
ENDBRANCH   2   3
ENDBRANCH   1   2
BRANCH   1  11
ATOM     11  C   UNL     1      53.461  42.942  16.000  1.00  0.00     0.003 C 
BRANCH  11  12
ATOM     12  C   UNL     1      52.508  44.084  16.414  1.00  0.00    -0.014 C 
ATOM     13  C   UNL     1      51.246  44.105  15.543  1.00  0.00     0.007 C 
BRANCH  12  14
ATOM     14  C   UNL     1      53.198  45.464  16.330  1.00  0.00     0.003 C 
BRANCH  14  15
ATOM     15  C   UNL     1      52.284  46.633  16.716  1.00  0.00     0.005 C 
BRANCH  15  16
ATOM     16  C   UNL     1      52.987  47.586  17.696  1.00  0.00     0.035 C 
BRANCH  16  17
ATOM     17  C   UNL     1      52.399  47.703  19.094  1.00  0.00    -0.056 C 
ATOM     18  C   UNL     1      51.713  46.716  19.699  1.00  0.00     0.012 C 
BRANCH  17  19
ATOM     19  C   UNL     1      52.592  48.959  19.816  1.00  0.00    -0.005 C 
ATOM     20  C   UNL     1      52.129  49.267  21.034  1.00  0.00     0.009 C 
ENDBRANCH  17  19
ENDBRANCH  16  17
ENDBRANCH  15  16
ENDBRANCH  14  15
ENDBRANCH  12  14
ENDBRANCH  11  12
ENDBRANCH   1  11
TORSDOF 13
ENDMDL
MODEL 11
REMARK VINA RESULT:      -7.9      1.165      4.936
REMARK SMILES C=CC(=C)CCC[C@@H](C)CCC[C@H](C)CCCC(C)C
REMARK SMILES IDX 11 1 12 2 13 3 14 4 15 5 16 6 17 7 18 8 19 9 20 10 10 11
REMARK SMILES IDX 8 12 9 13 7 14 6 15 5 16 3 17 4 18 2 19 1 20
REMARK H PARENT
ROOT
ATOM      1  C   UNL     1      53.225  48.773  21.013  1.00  0.00     0.001 C 
ENDROOT
BRANCH   1   2
ATOM      2  C   UNL     1      52.228  48.854  19.850  1.00  0.00     0.003 C 
BRANCH   2   3
ATOM      3  C   UNL     1      52.668  48.179  18.530  1.00  0.00    -0.014 C 
ATOM      4  C   UNL     1      53.145  49.211  17.505  1.00  0.00     0.007 C 
BRANCH   3   5
ATOM      5  C   UNL     1      51.494  47.334  17.985  1.00  0.00     0.003 C 
BRANCH   5   6
ATOM      6  C   UNL     1      51.834  45.850  17.803  1.00  0.00     0.001 C 
BRANCH   6   7
ATOM      7  C   UNL     1      51.575  45.398  16.362  1.00  0.00     0.003 C 
BRANCH   7   8
ATOM      8  C   UNL     1      52.652  44.442  15.816  1.00  0.00    -0.017 C 
ATOM      9  C   UNL     1      52.327  42.974  16.092  1.00  0.00     0.007 C 
ATOM     10  C   UNL     1      54.012  44.792  16.426  1.00  0.00     0.007 C 
ENDBRANCH   7   8
ENDBRANCH   6   7
ENDBRANCH   5   6
ENDBRANCH   3   5
ENDBRANCH   2   3
ENDBRANCH   1   2
BRANCH   1  11
ATOM     11  C   UNL     1      53.647  47.358  21.427  1.00  0.00     0.003 C 
BRANCH  11  12
ATOM     12  C   UNL     1      55.078  46.941  21.026  1.00  0.00    -0.014 C 
ATOM     13  C   UNL     1      55.906  48.147  20.566  1.00  0.00     0.007 C 
BRANCH  12  14
ATOM     14  C   UNL     1      55.071  45.879  19.903  1.00  0.00     0.003 C 
BRANCH  14  15
ATOM     15  C   UNL     1      54.289  44.610  20.262  1.00  0.00     0.005 C 
BRANCH  15  16
ATOM     16  C   UNL     1      55.222  43.394  20.366  1.00  0.00     0.035 C 
BRANCH  16  17
ATOM     17  C   UNL     1      54.800  42.129  19.635  1.00  0.00    -0.056 C 
ATOM     18  C   UNL     1      55.107  41.873  18.350  1.00  0.00     0.012 C 
BRANCH  17  19
ATOM     19  C   UNL     1      54.018  41.139  20.374  1.00  0.00    -0.005 C 
ATOM     20  C   UNL     1      54.194  40.759  21.645  1.00  0.00     0.009 C 
ENDBRANCH  17  19
ENDBRANCH  16  17
ENDBRANCH  15  16
ENDBRANCH  14  15
ENDBRANCH  12  14
ENDBRANCH  11  12
ENDBRANCH   1  11
TORSDOF 13
ENDMDL
MODEL 12
REMARK VINA RESULT:      -7.8      1.087      1.860
REMARK SMILES C=CC(=C)CCC[C@@H](C)CCC[C@H](C)CCCC(C)C
REMARK SMILES IDX 11 1 12 2 13 3 14 4 15 5 16 6 17 7 18 8 19 9 20 10 10 11
REMARK SMILES IDX 8 12 9 13 7 14 6 15 5 16 3 17 4 18 2 19 1 20
REMARK H PARENT
ROOT
ATOM      1  C   UNL     1      51.546  47.351  17.796  1.00  0.00     0.001 C 
ENDROOT
BRANCH   1   2
ATOM      2  C   UNL     1      52.853  48.132  17.614  1.00  0.00     0.003 C 
BRANCH   2   3
ATOM      3  C   UNL     1      53.675  48.390  18.898  1.00  0.00    -0.014 C 
ATOM      4  C   UNL     1      54.648  47.243  19.180  1.00  0.00     0.007 C 
BRANCH   3   5
ATOM      5  C   UNL     1      52.700  48.616  20.077  1.00  0.00     0.003 C 
BRANCH   5   6
ATOM      6  C   UNL     1      53.103  47.879  21.359  1.00  0.00     0.001 C 
BRANCH   6   7
ATOM      7  C   UNL     1      53.928  48.785  22.281  1.00  0.00     0.003 C 
BRANCH   7   8
ATOM      8  C   UNL     1      53.110  49.394  23.434  1.00  0.00    -0.017 C 
ATOM      9  C   UNL     1      51.970  50.284  22.937  1.00  0.00     0.007 C 
ATOM     10  C   UNL     1      54.031  50.202  24.352  1.00  0.00     0.007 C 
ENDBRANCH   7   8
ENDBRANCH   6   7
ENDBRANCH   5   6
ENDBRANCH   3   5
ENDBRANCH   2   3
ENDBRANCH   1   2
BRANCH   1  11
ATOM     11  C   UNL     1      51.656  45.828  17.651  1.00  0.00     0.003 C 
BRANCH  11  12
ATOM     12  C   UNL     1      52.307  45.325  16.344  1.00  0.00    -0.014 C 
ATOM     13  C   UNL     1      51.402  44.327  15.614  1.00  0.00     0.007 C 
BRANCH  12  14
ATOM     14  C   UNL     1      53.677  44.661  16.607  1.00  0.00     0.003 C 
BRANCH  14  15
ATOM     15  C   UNL     1      53.575  43.198  17.057  1.00  0.00     0.005 C 
BRANCH  15  16
ATOM     16  C   UNL     1      54.928  42.680  17.569  1.00  0.00     0.035 C 
BRANCH  16  17
ATOM     17  C   UNL     1      54.987  42.193  19.008  1.00  0.00    -0.056 C 
ATOM     18  C   UNL     1      55.453  40.983  19.368  1.00  0.00     0.012 C 
BRANCH  17  19
ATOM     19  C   UNL     1      54.508  43.094  20.056  1.00  0.00    -0.005 C 
ATOM     20  C   UNL     1      55.115  44.198  20.508  1.00  0.00     0.009 C 
ENDBRANCH  17  19
ENDBRANCH  16  17
ENDBRANCH  15  16
ENDBRANCH  14  15
ENDBRANCH  12  14
ENDBRANCH  11  12
ENDBRANCH   1  11
TORSDOF 13
ENDMDL
MODEL 13
REMARK VINA RESULT:      -7.8      1.511      4.058
REMARK SMILES C=CC(=C)CCC[C@@H](C)CCC[C@H](C)CCCC(C)C
REMARK SMILES IDX 11 1 12 2 13 3 14 4 15 5 16 6 17 7 18 8 19 9 20 10 10 11
REMARK SMILES IDX 8 12 9 13 7 14 6 15 5 16 3 17 4 18 2 19 1 20
REMARK H PARENT
ROOT
ATOM      1  C   UNL     1      54.362  44.681  19.524  1.00  0.00     0.001 C 
ENDROOT
BRANCH   1   2
ATOM      2  C   UNL     1      55.165  45.965  19.279  1.00  0.00     0.003 C 
BRANCH   2   3
ATOM      3  C   UNL     1      54.943  47.109  20.295  1.00  0.00    -0.014 C 
ATOM      4  C   UNL     1      56.202  47.962  20.462  1.00  0.00     0.007 C 
BRANCH   3   5
ATOM      5  C   UNL     1      54.483  46.499  21.640  1.00  0.00     0.003 C 
BRANCH   5   6
ATOM      6  C   UNL     1      53.085  46.952  22.077  1.00  0.00     0.001 C 
BRANCH   6   7
ATOM      7  C   UNL     1      52.907  48.461  21.876  1.00  0.00     0.003 C 
BRANCH   7   8
ATOM      8  C   UNL     1      52.918  49.261  23.191  1.00  0.00    -0.017 C 
ATOM      9  C   UNL     1      52.061  50.525  23.116  1.00  0.00     0.007 C 
ATOM     10  C   UNL     1      54.357  49.635  23.558  1.00  0.00     0.007 C 
ENDBRANCH   7   8
ENDBRANCH   6   7
ENDBRANCH   5   6
ENDBRANCH   3   5
ENDBRANCH   2   3
ENDBRANCH   1   2
BRANCH   1  11
ATOM     11  C   UNL     1      54.753  43.478  18.657  1.00  0.00     0.003 C 
BRANCH  11  12
ATOM     12  C   UNL     1      54.061  43.391  17.279  1.00  0.00    -0.014 C 
ATOM     13  C   UNL     1      54.741  42.359  16.373  1.00  0.00     0.007 C 
BRANCH  12  14
ATOM     14  C   UNL     1      54.048  44.759  16.560  1.00  0.00     0.003 C 
BRANCH  14  15
ATOM     15  C   UNL     1      52.798  44.989  15.699  1.00  0.00     0.005 C 
BRANCH  15  16
ATOM     16  C   UNL     1      51.608  45.440  16.560  1.00  0.00     0.035 C 
BRANCH  16  17
ATOM     17  C   UNL     1      51.851  46.573  17.544  1.00  0.00    -0.056 C 
ATOM     18  C   UNL     1      51.301  46.625  18.771  1.00  0.00     0.012 C 
BRANCH  17  19
ATOM     19  C   UNL     1      52.732  47.664  17.129  1.00  0.00    -0.005 C 
ATOM     20  C   UNL     1      52.983  48.795  17.800  1.00  0.00     0.009 C 
ENDBRANCH  17  19
ENDBRANCH  16  17
ENDBRANCH  15  16
ENDBRANCH  14  15
ENDBRANCH  12  14
ENDBRANCH  11  12
ENDBRANCH   1  11
TORSDOF 13
ENDMDL
MODEL 14
REMARK VINA RESULT:      -7.7      1.423      6.318
REMARK SMILES C=CC(=C)CCC[C@@H](C)CCC[C@H](C)CCCC(C)C
REMARK SMILES IDX 11 1 12 2 13 3 14 4 15 5 16 6 17 7 18 8 19 9 20 10 10 11
REMARK SMILES IDX 8 12 9 13 7 14 6 15 5 16 3 17 4 18 2 19 1 20
REMARK H PARENT
ROOT
ATOM      1  C   UNL     1      54.926  43.605  19.201  1.00  0.00     0.001 C 
ENDROOT
BRANCH   1   2
ATOM      2  C   UNL     1      54.001  42.690  18.388  1.00  0.00     0.003 C 
BRANCH   2   3
ATOM      3  C   UNL     1      54.159  42.757  16.852  1.00  0.00    -0.014 C 
ATOM      4  C   UNL     1      55.056  43.923  16.431  1.00  0.00     0.007 C 
BRANCH   3   5
ATOM      5  C   UNL     1      52.756  42.855  16.209  1.00  0.00     0.003 C 
BRANCH   5   6
ATOM      6  C   UNL     1      52.490  44.194  15.511  1.00  0.00     0.001 C 
BRANCH   6   7
ATOM      7  C   UNL     1      51.504  45.049  16.315  1.00  0.00     0.003 C 
BRANCH   7   8
ATOM      8  C   UNL     1      52.174  45.872  17.430  1.00  0.00    -0.017 C 
ATOM      9  C   UNL     1      51.163  46.444  18.425  1.00  0.00     0.007 C 
ATOM     10  C   UNL     1      52.991  47.011  16.813  1.00  0.00     0.007 C 
ENDBRANCH   7   8
ENDBRANCH   6   7
ENDBRANCH   5   6
ENDBRANCH   3   5
ENDBRANCH   2   3
ENDBRANCH   1   2
BRANCH   1  11
ATOM     11  C   UNL     1      54.284  44.287  20.416  1.00  0.00     0.003 C 
BRANCH  11  12
ATOM     12  C   UNL     1      54.574  45.796  20.567  1.00  0.00    -0.014 C 
ATOM     13  C   UNL     1      55.310  46.352  19.343  1.00  0.00     0.007 C 
BRANCH  12  14
ATOM     14  C   UNL     1      55.409  46.094  21.833  1.00  0.00     0.003 C 
BRANCH  14  15
ATOM     15  C   UNL     1      54.891  47.287  22.645  1.00  0.00     0.005 C 
BRANCH  15  16
ATOM     16  C   UNL     1      53.361  47.398  22.553  1.00  0.00     0.035 C 
BRANCH  16  17
ATOM     17  C   UNL     1      52.780  48.766  22.232  1.00  0.00    -0.056 C 
ATOM     18  C   UNL     1      52.658  49.754  23.137  1.00  0.00     0.012 C 
BRANCH  17  19
ATOM     19  C   UNL     1      52.332  49.016  20.863  1.00  0.00    -0.005 C 
ATOM     20  C   UNL     1      53.099  49.123  19.771  1.00  0.00     0.009 C 
ENDBRANCH  17  19
ENDBRANCH  16  17
ENDBRANCH  15  16
ENDBRANCH  14  15
ENDBRANCH  12  14
ENDBRANCH  11  12
ENDBRANCH   1  11
TORSDOF 13
ENDMDL
MODEL 15
REMARK VINA RESULT:      -7.7      1.163      6.693
REMARK SMILES C=CC(=C)CCC[C@@H](C)CCC[C@H](C)CCCC(C)C
REMARK SMILES IDX 11 1 12 2 13 3 14 4 15 5 16 6 17 7 18 8 19 9 20 10 10 11
REMARK SMILES IDX 8 12 9 13 7 14 6 15 5 16 3 17 4 18 2 19 1 20
REMARK H PARENT
ROOT
ATOM      1  C   UNL     1      54.486  43.995  20.878  1.00  0.00     0.001 C 
ENDROOT
BRANCH   1   2
ATOM      2  C   UNL     1      55.087  43.560  19.536  1.00  0.00     0.003 C 
BRANCH   2   3
ATOM      3  C   UNL     1      54.718  42.137  19.056  1.00  0.00    -0.014 C 
ATOM      4  C   UNL     1      55.532  41.070  19.791  1.00  0.00     0.007 C 
BRANCH   3   5
ATOM      5  C   UNL     1      54.922  42.058  17.526  1.00  0.00     0.003 C 
BRANCH   5   6
ATOM      6  C   UNL     1      54.456  43.311  16.775  1.00  0.00     0.001 C 
BRANCH   6   7
ATOM      7  C   UNL     1      53.160  43.040  16.001  1.00  0.00     0.003 C 
BRANCH   7   8
ATOM      8  C   UNL     1      52.544  44.304  15.375  1.00  0.00    -0.017 C 
ATOM      9  C   UNL     1      53.238  45.585  15.840  1.00  0.00     0.007 C 
ATOM     10  C   UNL     1      51.052  44.375  15.712  1.00  0.00     0.007 C 
ENDBRANCH   7   8
ENDBRANCH   6   7
ENDBRANCH   5   6
ENDBRANCH   3   5
ENDBRANCH   2   3
ENDBRANCH   1   2
BRANCH   1  11
ATOM     11  C   UNL     1      53.861  45.396  20.904  1.00  0.00     0.003 C 
BRANCH  11  12
ATOM     12  C   UNL     1      54.621  46.455  21.730  1.00  0.00    -0.014 C 
ATOM     13  C   UNL     1      53.673  47.246  22.638  1.00  0.00     0.007 C 
BRANCH  12  14
ATOM     14  C   UNL     1      55.389  47.444  20.823  1.00  0.00     0.003 C 
BRANCH  14  15
ATOM     15  C   UNL     1      54.986  47.363  19.345  1.00  0.00     0.005 C 
BRANCH  15  16
ATOM     16  C   UNL     1      54.120  48.566  18.940  1.00  0.00     0.035 C 
BRANCH  16  17
ATOM     17  C   UNL     1      52.623  48.459  19.182  1.00  0.00    -0.056 C 
ATOM     18  C   UNL     1      51.964  49.180  20.107  1.00  0.00     0.012 C 
BRANCH  17  19
ATOM     19  C   UNL     1      51.862  47.517  18.362  1.00  0.00    -0.005 C 
ATOM     20  C   UNL     1      51.063  46.535  18.796  1.00  0.00     0.009 C 
ENDBRANCH  17  19
ENDBRANCH  16  17
ENDBRANCH  15  16
ENDBRANCH  14  15
ENDBRANCH  12  14
ENDBRANCH  11  12
ENDBRANCH   1  11
TORSDOF 13
ENDMDL
MODEL 16
REMARK VINA RESULT:      -7.5      1.236      6.508
REMARK SMILES C=CC(=C)CCC[C@@H](C)CCC[C@H](C)CCCC(C)C
REMARK SMILES IDX 11 1 12 2 13 3 14 4 15 5 16 6 17 7 18 8 19 9 20 10 10 11
REMARK SMILES IDX 8 12 9 13 7 14 6 15 5 16 3 17 4 18 2 19 1 20
REMARK H PARENT
ROOT
ATOM      1  C   UNL     1      54.989  45.752  20.022  1.00  0.00     0.001 C 
ENDROOT
BRANCH   1   2
ATOM      2  C   UNL     1      54.281  44.439  19.667  1.00  0.00     0.003 C 
BRANCH   2   3
ATOM      3  C   UNL     1      54.969  43.566  18.592  1.00  0.00    -0.014 C 
ATOM      4  C   UNL     1      54.713  44.106  17.183  1.00  0.00     0.007 C 
BRANCH   3   5
ATOM      5  C   UNL     1      54.478  42.108  18.743  1.00  0.00     0.003 C 
BRANCH   5   6
ATOM      6  C   UNL     1      55.473  41.193  19.466  1.00  0.00     0.001 C 
BRANCH   6   7
ATOM      7  C   UNL     1      54.746  40.191  20.369  1.00  0.00     0.003 C 
BRANCH   7   8
ATOM      8  C   UNL     1      53.675  40.838  21.267  1.00  0.00    -0.017 C 
ATOM      9  C   UNL     1      54.159  41.038  22.703  1.00  0.00     0.007 C 
ATOM     10  C   UNL     1      52.408  39.978  21.265  1.00  0.00     0.007 C 
ENDBRANCH   7   8
ENDBRANCH   6   7
ENDBRANCH   5   6
ENDBRANCH   3   5
ENDBRANCH   2   3
ENDBRANCH   1   2
BRANCH   1  11
ATOM     11  C   UNL     1      54.471  46.467  21.277  1.00  0.00     0.003 C 
BRANCH  11  12
ATOM     12  C   UNL     1      54.386  48.006  21.184  1.00  0.00    -0.014 C 
ATOM     13  C   UNL     1      55.068  48.679  22.381  1.00  0.00     0.007 C 
BRANCH  12  14
ATOM     14  C   UNL     1      52.922  48.494  21.102  1.00  0.00     0.003 C 
BRANCH  14  15
ATOM     15  C   UNL     1      52.457  48.805  19.673  1.00  0.00     0.005 C 
BRANCH  15  16
ATOM     16  C   UNL     1      51.656  47.633  19.084  1.00  0.00     0.035 C 
BRANCH  16  17
ATOM     17  C   UNL     1      52.161  47.031  17.782  1.00  0.00    -0.056 C 
ATOM     18  C   UNL     1      53.233  47.494  17.113  1.00  0.00     0.012 C 
BRANCH  17  19
ATOM     19  C   UNL     1      51.439  45.885  17.231  1.00  0.00    -0.005 C 
ATOM     20  C   UNL     1      51.700  45.244  16.085  1.00  0.00     0.009 C 
ENDBRANCH  17  19
ENDBRANCH  16  17
ENDBRANCH  15  16
ENDBRANCH  14  15
ENDBRANCH  12  14
ENDBRANCH  11  12
ENDBRANCH   1  11
TORSDOF 13
ENDMDL
MODEL 17
REMARK VINA RESULT:      -7.5      1.294      4.187
REMARK SMILES C=CC(=C)CCC[C@@H](C)CCC[C@H](C)CCCC(C)C
REMARK SMILES IDX 11 1 12 2 13 3 14 4 15 5 16 6 17 7 18 8 19 9 20 10 10 11
REMARK SMILES IDX 8 12 9 13 7 14 6 15 5 16 3 17 4 18 2 19 1 20
REMARK H PARENT
ROOT
ATOM      1  C   UNL     1      54.691  43.156  18.091  1.00  0.00     0.001 C 
ENDROOT
BRANCH   1   2
ATOM      2  C   UNL     1      54.624  44.457  18.901  1.00  0.00     0.003 C 
BRANCH   2   3
ATOM      3  C   UNL     1      55.119  44.373  20.363  1.00  0.00    -0.014 C 
ATOM      4  C   UNL     1      54.771  43.024  20.996  1.00  0.00     0.007 C 
BRANCH   3   5
ATOM      5  C   UNL     1      54.517  45.551  21.163  1.00  0.00     0.003 C 
BRANCH   5   6
ATOM      6  C   UNL     1      55.539  46.633  21.531  1.00  0.00     0.001 C 
BRANCH   6   7
ATOM      7  C   UNL     1      54.967  48.036  21.295  1.00  0.00     0.003 C 
BRANCH   7   8
ATOM      8  C   UNL     1      53.819  48.399  22.254  1.00  0.00    -0.017 C 
ATOM      9  C   UNL     1      52.655  49.088  21.541  1.00  0.00     0.007 C 
ATOM     10  C   UNL     1      54.345  49.302  23.374  1.00  0.00     0.007 C 
ENDBRANCH   7   8
ENDBRANCH   6   7
ENDBRANCH   5   6
ENDBRANCH   3   5
ENDBRANCH   2   3
ENDBRANCH   1   2
BRANCH   1  11
ATOM     11  C   UNL     1      54.474  43.302  16.580  1.00  0.00     0.003 C 
BRANCH  11  12
ATOM     12  C   UNL     1      53.069  42.925  16.065  1.00  0.00    -0.014 C 
ATOM     13  C   UNL     1      53.128  41.747  15.086  1.00  0.00     0.007 C 
BRANCH  12  14
ATOM     14  C   UNL     1      52.374  44.119  15.371  1.00  0.00     0.003 C 
BRANCH  14  15
ATOM     15  C   UNL     1      52.810  45.485  15.916  1.00  0.00     0.005 C 
BRANCH  15  16
ATOM     16  C   UNL     1      51.696  46.128  16.756  1.00  0.00     0.035 C 
BRANCH  16  17
ATOM     17  C   UNL     1      52.103  46.781  18.067  1.00  0.00    -0.056 C 
ATOM     18  C   UNL     1      51.520  46.508  19.249  1.00  0.00     0.012 C 
BRANCH  17  19
ATOM     19  C   UNL     1      53.188  47.761  18.037  1.00  0.00    -0.005 C 
ATOM     20  C   UNL     1      53.165  48.971  17.465  1.00  0.00     0.009 C 
ENDBRANCH  17  19
ENDBRANCH  16  17
ENDBRANCH  15  16
ENDBRANCH  14  15
ENDBRANCH  12  14
ENDBRANCH  11  12
ENDBRANCH   1  11
TORSDOF 13
ENDMDL
MODEL 18
REMARK VINA RESULT:      -7.4      1.404      3.799
REMARK SMILES C=CC(=C)CCC[C@@H](C)CCC[C@H](C)CCCC(C)C
REMARK SMILES IDX 11 1 12 2 13 3 14 4 15 5 16 6 17 7 18 8 19 9 20 10 10 11
REMARK SMILES IDX 8 12 9 13 7 14 6 15 5 16 3 17 4 18 2 19 1 20
REMARK H PARENT
ROOT
ATOM      1  C   UNL     1      52.302  48.480  20.295  1.00  0.00     0.001 C 
ENDROOT
BRANCH   1   2
ATOM      2  C   UNL     1      53.020  49.387  21.302  1.00  0.00     0.003 C 
BRANCH   2   3
ATOM      3  C   UNL     1      53.224  48.801  22.718  1.00  0.00    -0.014 C 
ATOM      4  C   UNL     1      52.431  49.582  23.768  1.00  0.00     0.007 C 
BRANCH   3   5
ATOM      5  C   UNL     1      54.737  48.787  23.039  1.00  0.00     0.003 C 
BRANCH   5   6
ATOM      6  C   UNL     1      55.578  48.021  22.012  1.00  0.00     0.001 C 
BRANCH   6   7
ATOM      7  C   UNL     1      55.328  46.512  22.110  1.00  0.00     0.003 C 
BRANCH   7   8
ATOM      8  C   UNL     1      55.270  45.809  20.742  1.00  0.00    -0.017 C 
ATOM      9  C   UNL     1      55.539  46.766  19.580  1.00  0.00     0.007 C 
ATOM     10  C   UNL     1      53.901  45.147  20.557  1.00  0.00     0.007 C 
ENDBRANCH   7   8
ENDBRANCH   6   7
ENDBRANCH   5   6
ENDBRANCH   3   5
ENDBRANCH   2   3
ENDBRANCH   1   2
BRANCH   1  11
ATOM     11  C   UNL     1      52.673  48.697  18.823  1.00  0.00     0.003 C 
BRANCH  11  12
ATOM     12  C   UNL     1      52.036  47.714  17.819  1.00  0.00    -0.014 C 
ATOM     13  C   UNL     1      51.367  46.535  18.535  1.00  0.00     0.007 C 
BRANCH  12  14
ATOM     14  C   UNL     1      53.076  47.166  16.816  1.00  0.00     0.003 C 
BRANCH  14  15
ATOM     15  C   UNL     1      52.830  45.708  16.409  1.00  0.00     0.005 C 
BRANCH  15  16
ATOM     16  C   UNL     1      54.026  44.818  16.784  1.00  0.00     0.035 C 
BRANCH  16  17
ATOM     17  C   UNL     1      53.790  43.317  16.826  1.00  0.00    -0.056 C 
ATOM     18  C   UNL     1      52.683  42.723  16.345  1.00  0.00     0.012 C 
BRANCH  17  19
ATOM     19  C   UNL     1      54.827  42.476  17.423  1.00  0.00    -0.005 C 
ATOM     20  C   UNL     1      54.884  42.047  18.690  1.00  0.00     0.009 C 
ENDBRANCH  17  19
ENDBRANCH  16  17
ENDBRANCH  15  16
ENDBRANCH  14  15
ENDBRANCH  12  14
ENDBRANCH  11  12
ENDBRANCH   1  11
TORSDOF 13
ENDMDL
MODEL 19
REMARK VINA RESULT:      -7.3      1.453      6.757
REMARK SMILES C=CC(=C)CCC[C@@H](C)CCC[C@H](C)CCCC(C)C
REMARK SMILES IDX 11 1 12 2 13 3 14 4 15 5 16 6 17 7 18 8 19 9 20 10 10 11
REMARK SMILES IDX 8 12 9 13 7 14 6 15 5 16 3 17 4 18 2 19 1 20
REMARK H PARENT
ROOT
ATOM      1  C   UNL     1      51.973  46.595  20.077  1.00  0.00     0.001 C 
ENDROOT
BRANCH   1   2
ATOM      2  C   UNL     1      51.416  46.672  18.650  1.00  0.00     0.003 C 
BRANCH   2   3
ATOM      3  C   UNL     1      52.448  46.517  17.509  1.00  0.00    -0.014 C 
ATOM      4  C   UNL     1      52.988  47.874  17.054  1.00  0.00     0.007 C 
BRANCH   3   5
ATOM      5  C   UNL     1      51.791  45.742  16.343  1.00  0.00     0.003 C 
BRANCH   5   6
ATOM      6  C   UNL     1      52.643  44.582  15.817  1.00  0.00     0.001 C 
BRANCH   6   7
ATOM      7  C   UNL     1      52.971  43.587  16.935  1.00  0.00     0.003 C 
BRANCH   7   8
ATOM      8  C   UNL     1      54.481  43.428  17.191  1.00  0.00    -0.017 C 
ATOM      9  C   UNL     1      55.116  42.353  16.308  1.00  0.00     0.007 C 
ATOM     10  C   UNL     1      54.724  43.093  18.666  1.00  0.00     0.007 C 
ENDBRANCH   7   8
ENDBRANCH   6   7
ENDBRANCH   5   6
ENDBRANCH   3   5
ENDBRANCH   2   3
ENDBRANCH   1   2
BRANCH   1  11
ATOM     11  C   UNL     1      53.319  45.875  20.227  1.00  0.00     0.003 C 
BRANCH  11  12
ATOM     12  C   UNL     1      54.529  46.776  20.552  1.00  0.00    -0.014 C 
ATOM     13  C   UNL     1      55.554  46.773  19.411  1.00  0.00     0.007 C 
BRANCH  12  14
ATOM     14  C   UNL     1      55.231  46.342  21.858  1.00  0.00     0.003 C 
BRANCH  14  15
ATOM     15  C   UNL     1      55.340  47.463  22.900  1.00  0.00     0.005 C 
BRANCH  15  16
ATOM     16  C   UNL     1      54.766  48.781  22.358  1.00  0.00     0.035 C 
BRANCH  16  17
ATOM     17  C   UNL     1      53.716  49.482  23.204  1.00  0.00    -0.056 C 
ATOM     18  C   UNL     1      52.428  49.615  22.836  1.00  0.00     0.012 C 
BRANCH  17  19
ATOM     19  C   UNL     1      54.133  50.043  24.489  1.00  0.00    -0.005 C 
ATOM     20  C   UNL     1      54.690  51.241  24.701  1.00  0.00     0.009 C 
ENDBRANCH  17  19
ENDBRANCH  16  17
ENDBRANCH  15  16
ENDBRANCH  14  15
ENDBRANCH  12  14
ENDBRANCH  11  12
ENDBRANCH   1  11
TORSDOF 13
ENDMDL
MODEL 20
REMARK VINA RESULT:      -7.2      1.335      4.432
REMARK SMILES C=CC(=C)CCC[C@@H](C)CCC[C@H](C)CCCC(C)C
REMARK SMILES IDX 11 1 12 2 13 3 14 4 15 5 16 6 17 7 18 8 19 9 20 10 10 11
REMARK SMILES IDX 8 12 9 13 7 14 6 15 5 16 3 17 4 18 2 19 1 20
REMARK H PARENT
ROOT
ATOM      1  C   UNL     1      54.486  43.845  21.201  1.00  0.00     0.001 C 
ENDROOT
BRANCH   1   2
ATOM      2  C   UNL     1      54.376  45.306  20.746  1.00  0.00     0.003 C 
BRANCH   2   3
ATOM      3  C   UNL     1      55.475  46.263  21.265  1.00  0.00    -0.014 C 
ATOM      4  C   UNL     1      55.058  46.938  22.574  1.00  0.00     0.007 C 
BRANCH   3   5
ATOM      5  C   UNL     1      55.795  47.299  20.164  1.00  0.00     0.003 C 
BRANCH   5   6
ATOM      6  C   UNL     1      54.801  48.465  20.107  1.00  0.00     0.001 C 
BRANCH   6   7
ATOM      7  C   UNL     1      53.864  48.333  18.901  1.00  0.00     0.003 C 
BRANCH   7   8
ATOM      8  C   UNL     1      52.377  48.519  19.256  1.00  0.00    -0.017 C 
ATOM      9  C   UNL     1      52.176  49.061  20.672  1.00  0.00     0.007 C 
ATOM     10  C   UNL     1      51.638  47.187  19.104  1.00  0.00     0.007 C 
ENDBRANCH   7   8
ENDBRANCH   6   7
ENDBRANCH   5   6
ENDBRANCH   3   5
ENDBRANCH   2   3
ENDBRANCH   1   2
BRANCH   1  11
ATOM     11  C   UNL     1      55.445  42.967  20.386  1.00  0.00     0.003 C 
BRANCH  11  12
ATOM     12  C   UNL     1      54.827  41.696  19.767  1.00  0.00    -0.014 C 
ATOM     13  C   UNL     1      55.908  40.699  19.335  1.00  0.00     0.007 C 
BRANCH  12  14
ATOM     14  C   UNL     1      53.936  42.028  18.548  1.00  0.00     0.003 C 
BRANCH  14  15
ATOM     15  C   UNL     1      54.677  42.771  17.429  1.00  0.00     0.005 C 
BRANCH  15  16
ATOM     16  C   UNL     1      54.372  44.277  17.467  1.00  0.00     0.035 C 
BRANCH  16  17
ATOM     17  C   UNL     1      53.372  44.809  16.453  1.00  0.00    -0.056 C 
ATOM     18  C   UNL     1      53.311  46.098  16.072  1.00  0.00     0.012 C 
BRANCH  17  19
ATOM     19  C   UNL     1      52.427  43.863  15.861  1.00  0.00    -0.005 C 
ATOM     20  C   UNL     1      51.134  44.081  15.590  1.00  0.00     0.009 C 
ENDBRANCH  17  19
ENDBRANCH  16  17
ENDBRANCH  15  16
ENDBRANCH  14  15
ENDBRANCH  12  14
ENDBRANCH  11  12
ENDBRANCH   1  11
TORSDOF 13
ENDMDL
