REMARK SMILES CCCCCC/C=C\C=C\CCCCCCCC(=O)O
REMARK SMILES IDX 12 1 13 2 14 3 15 4 16 5 17 6 18 7 19 8 20 9 11 11 10 12
REMARK SMILES IDX 9 13 8 14 7 15 6 16 5 17 4 18 3 19 2 20 1 21
REMARK H PARENT 20 10
ROOT
ATOM      1  C   UNL     1      -3.820   2.737  -0.322  1.00  0.00     0.004 C 
ENDROOT
BRANCH   1   2
ATOM      2  C   UNL     1      -2.563   2.668   0.552  1.00  0.00     0.000 C 
BRANCH   2   3
ATOM      3  C   UNL     1      -1.254   2.370  -0.187  1.00  0.00     0.000 C 
BRANCH   3   4
ATOM      4  C   UNL     1       0.011   2.367   0.677  1.00  0.00     0.001 C 
BRANCH   4   5
ATOM      5  C   UNL     1       1.295   2.142  -0.128  1.00  0.00     0.012 C 
BRANCH   5   6
ATOM      6  C   UNL     1       2.543   2.146   0.755  1.00  0.00     0.122 C 
BRANCH   6   7
ATOM      7  C   UNL     1       3.819   1.933  -0.023  1.00  0.00     0.303 C 
ATOM      8  O   UNL     1       3.909   1.764  -1.229  1.00  0.00    -0.252 OA
BRANCH   7   9
ATOM      9  O   UNL     1       4.883   1.921   0.821  1.00  0.00    -0.481 OA
ATOM     10  H   UNL     1       5.726   1.768   0.344  1.00  0.00     0.296 HD
ENDBRANCH   7   9
ENDBRANCH   6   7
ENDBRANCH   5   6
ENDBRANCH   4   5
ENDBRANCH   3   4
ENDBRANCH   2   3
ENDBRANCH   1   2
BRANCH   1  11
ATOM     11  C   UNL     1      -4.080   1.453  -1.112  1.00  0.00     0.027 C 
BRANCH  11  12
ATOM     12  C   UNL     1      -4.255   0.278  -0.192  1.00  0.00    -0.027 C 
ATOM     13  C   UNL     1      -3.441  -0.789  -0.187  1.00  0.00    -0.005 C 
BRANCH  13  14
ATOM     14  C   UNL     1      -3.616  -1.911   0.706  1.00  0.00    -0.005 C 
ATOM     15  C   UNL     1      -2.803  -2.978   0.710  1.00  0.00    -0.027 C 
BRANCH  15  16
ATOM     16  C   UNL     1      -1.623  -3.128  -0.207  1.00  0.00     0.027 C 
BRANCH  16  17
ATOM     17  C   UNL     1      -0.314  -2.634   0.419  1.00  0.00     0.004 C 
BRANCH  17  18
ATOM     18  C   UNL     1       0.902  -2.855  -0.488  1.00  0.00     0.000 C 
BRANCH  18  19
ATOM     19  C   UNL     1       2.224  -2.425   0.155  1.00  0.00    -0.000 C 
BRANCH  19  20
ATOM     20  C   UNL     1       3.446  -2.717  -0.716  1.00  0.00    -0.003 C 
ATOM     21  C   UNL     1       4.737  -2.340  -0.005  1.00  0.00     0.004 C 
ENDBRANCH  19  20
ENDBRANCH  18  19
ENDBRANCH  17  18
ENDBRANCH  16  17
ENDBRANCH  15  16
ENDBRANCH  13  14
ENDBRANCH  11  12
ENDBRANCH   1  11
TORSDOF 15
