REMARK SMILES CCC=CCC=CCC=CCCCCCCCC(=O)O
REMARK SMILES IDX 12 1 13 2 14 3 15 4 16 5 17 6 18 7 19 8 20 9 11 11 10 12
REMARK SMILES IDX 9 13 8 14 7 15 6 16 5 17 4 18 3 19 2 20 1 21
REMARK H PARENT 20 10
ROOT
ATOM      1  C   UNL     1       0.709  -3.785   0.050  1.00  0.00     0.004 C 
ENDROOT
BRANCH   1   2
ATOM      2  C   UNL     1       0.026  -2.486  -0.393  1.00  0.00     0.000 C 
BRANCH   2   3
ATOM      3  C   UNL     1      -1.452  -2.415   0.002  1.00  0.00     0.000 C 
BRANCH   3   4
ATOM      4  C   UNL     1      -2.113  -1.085  -0.372  1.00  0.00     0.001 C 
BRANCH   4   5
ATOM      5  C   UNL     1      -3.567  -1.036   0.111  1.00  0.00     0.012 C 
BRANCH   5   6
ATOM      6  C   UNL     1      -4.264   0.266  -0.272  1.00  0.00     0.122 C 
BRANCH   6   7
ATOM      7  C   UNL     1      -5.700   0.307   0.188  1.00  0.00     0.303 C 
ATOM      8  O   UNL     1      -6.237  -0.582   0.836  1.00  0.00    -0.252 OA
BRANCH   7   9
ATOM      9  O   UNL     1      -6.337   1.443  -0.190  1.00  0.00    -0.481 OA
ATOM     10  H   UNL     1      -7.269   1.460   0.116  1.00  0.00     0.296 HD
ENDBRANCH   7   9
ENDBRANCH   6   7
ENDBRANCH   5   6
ENDBRANCH   4   5
ENDBRANCH   3   4
ENDBRANCH   2   3
ENDBRANCH   1   2
BRANCH   1  11
ATOM     11  C   UNL     1       2.207  -3.814  -0.283  1.00  0.00     0.027 C 
BRANCH  11  12
ATOM     12  C   UNL     1       3.090  -2.750   0.311  1.00  0.00    -0.031 C 
ATOM     13  C   UNL     1       3.876  -1.882  -0.345  1.00  0.00    -0.027 C 
BRANCH  13  14
ATOM     14  C   UNL     1       4.726  -0.850   0.337  1.00  0.00     0.054 C 
BRANCH  14  15
ATOM     15  C   UNL     1       4.413   0.533  -0.157  1.00  0.00    -0.027 C 
ATOM     16  C   UNL     1       4.045   1.545   0.643  1.00  0.00    -0.027 C 
BRANCH  16  17
ATOM     17  C   UNL     1       3.740   2.929   0.150  1.00  0.00     0.054 C 
BRANCH  17  18
ATOM     18  C   UNL     1       2.314   3.310   0.424  1.00  0.00    -0.027 C 
ATOM     19  C   UNL     1       1.425   3.615  -0.533  1.00  0.00    -0.031 C 
BRANCH  19  20
ATOM     20  C   UNL     1      -0.003   3.982  -0.258  1.00  0.00     0.023 C 
ATOM     21  C   UNL     1      -0.900   2.754  -0.248  1.00  0.00     0.008 C 
ENDBRANCH  19  20
ENDBRANCH  17  18
ENDBRANCH  16  17
ENDBRANCH  14  15
ENDBRANCH  13  14
ENDBRANCH  11  12
ENDBRANCH   1  11
TORSDOF 14
