REMARK SMILES CCCC(=O)O
REMARK SMILES IDX 4 1 5 2 3 3 2 4 1 5 6 6
REMARK H PARENT 6 7
ROOT
ATOM      1  C   UNL     1      -1.470   0.168  -0.325  1.00  0.00     0.303 C 
ATOM      2  O   UNL     1      -1.749   0.918   0.594  1.00  0.00    -0.252 OA
ENDROOT
BRANCH   1   3
ATOM      3  C   UNL     1      -0.313  -0.791  -0.412  1.00  0.00     0.122 C 
BRANCH   3   4
ATOM      4  C   UNL     1       0.743  -0.550   0.664  1.00  0.00     0.008 C 
ATOM      5  C   UNL     1       1.560   0.710   0.412  1.00  0.00     0.004 C 
ENDBRANCH   3   4
ENDBRANCH   1   3
BRANCH   1   6
ATOM      6  O   UNL     1      -2.253   0.109  -1.421  1.00  0.00    -0.481 OA
ATOM      7  H   UNL     1      -2.965   0.758  -1.237  1.00  0.00     0.296 HD
ENDBRANCH   1   6
TORSDOF 3
