REMARK SMILES CCCCCC/C=C\CCCCCCCCC(=O)O
REMARK SMILES IDX 11 1 12 2 13 3 14 4 15 5 16 6 17 7 18 8 19 9 10 11 9 12 8 13
REMARK SMILES IDX 7 14 6 15 5 16 4 17 3 18 2 19 1 20
REMARK H PARENT 19 10
ROOT
ATOM      1  C   UNL     1      -0.346   1.235  -0.678  1.00  0.00     0.000 C 
ENDROOT
BRANCH   1   2
ATOM      2  C   UNL     1      -1.647   1.336   0.123  1.00  0.00     0.000 C 
BRANCH   2   3
ATOM      3  C   UNL     1      -2.729   0.362  -0.355  1.00  0.00     0.000 C 
BRANCH   3   4
ATOM      4  C   UNL     1      -4.080   0.469   0.360  1.00  0.00     0.001 C 
BRANCH   4   5
ATOM      5  C   UNL     1      -5.180  -0.457  -0.162  1.00  0.00     0.012 C 
BRANCH   5   6
ATOM      6  C   UNL     1      -6.526  -0.255   0.530  1.00  0.00     0.122 C 
BRANCH   6   7
ATOM      7  C   UNL     1      -7.556  -1.249   0.050  1.00  0.00     0.303 C 
ATOM      8  O   UNL     1      -7.387  -2.107  -0.803  1.00  0.00    -0.252 OA
BRANCH   7   9
ATOM      9  O   UNL     1      -8.732  -1.052   0.699  1.00  0.00    -0.481 OA
ATOM     10  H   UNL     1      -9.423  -1.681   0.403  1.00  0.00     0.296 HD
ENDBRANCH   7   9
ENDBRANCH   6   7
ENDBRANCH   5   6
ENDBRANCH   4   5
ENDBRANCH   3   4
ENDBRANCH   2   3
ENDBRANCH   1   2
BRANCH   1  11
ATOM     11  C   UNL     1       0.734   2.213  -0.197  1.00  0.00     0.004 C 
BRANCH  11  12
ATOM     12  C   UNL     1       2.052   2.160  -0.977  1.00  0.00     0.027 C 
BRANCH  12  13
ATOM     13  C   UNL     1       3.094   3.094  -0.433  1.00  0.00    -0.031 C 
ATOM     14  C   UNL     1       4.041   2.732   0.445  1.00  0.00    -0.031 C 
BRANCH  14  15
ATOM     15  C   UNL     1       4.180   1.343   0.997  1.00  0.00     0.027 C 
BRANCH  15  16
ATOM     16  C   UNL     1       5.096   0.446   0.157  1.00  0.00     0.004 C 
BRANCH  16  17
ATOM     17  C   UNL     1       5.314  -0.969   0.709  1.00  0.00     0.000 C 
BRANCH  17  18
ATOM     18  C   UNL     1       6.167  -1.853  -0.204  1.00  0.00    -0.000 C 
BRANCH  18  19
ATOM     19  C   UNL     1       6.318  -3.285   0.314  1.00  0.00    -0.003 C 
ATOM     20  C   UNL     1       7.186  -4.162  -0.576  1.00  0.00     0.004 C 
ENDBRANCH  18  19
ENDBRANCH  17  18
ENDBRANCH  16  17
ENDBRANCH  15  16
ENDBRANCH  14  15
ENDBRANCH  12  13
ENDBRANCH  11  12
ENDBRANCH   1  11
TORSDOF 15
