REMARK SMILES CCCCC/C=C\C/C=C\C/C=C\CCCCC(=O)O
REMARK SMILES IDX 11 1 12 2 13 3 14 4 15 5 16 6 17 7 18 8 19 9 20 10 10 12
REMARK SMILES IDX 9 13 8 14 7 15 6 16 5 17 4 18 3 19 2 20 1 21
REMARK H PARENT 20 11
ROOT
ATOM      1  C   UNL     1       2.049   1.257  -1.154  1.00  0.00     0.054 C 
ENDROOT
BRANCH   1   2
ATOM      2  C   UNL     1       1.522   2.229  -2.168  1.00  0.00    -0.027 C 
ATOM      3  C   UNL     1       0.313   2.804  -2.081  1.00  0.00    -0.031 C 
BRANCH   3   4
ATOM      4  C   UNL     1      -0.657   2.547  -0.965  1.00  0.00     0.027 C 
BRANCH   4   5
ATOM      5  C   UNL     1      -1.562   1.339  -1.226  1.00  0.00     0.005 C 
BRANCH   5   6
ATOM      6  C   UNL     1      -2.574   1.079  -0.106  1.00  0.00     0.012 C 
BRANCH   6   7
ATOM      7  C   UNL     1      -3.469  -0.115  -0.439  1.00  0.00     0.122 C 
BRANCH   7   8
ATOM      8  C   UNL     1      -4.496  -0.366   0.636  1.00  0.00     0.303 C 
ATOM      9  O   UNL     1      -4.628   0.271   1.670  1.00  0.00    -0.252 OA
BRANCH   8  10
ATOM     10  O   UNL     1      -5.289  -1.411   0.285  1.00  0.00    -0.481 OA
ATOM     11  H   UNL     1      -5.974  -1.593   0.963  1.00  0.00     0.296 HD
ENDBRANCH   8  10
ENDBRANCH   7   8
ENDBRANCH   6   7
ENDBRANCH   5   6
ENDBRANCH   4   5
ENDBRANCH   3   4
ENDBRANCH   1   2
BRANCH   1  12
ATOM     12  C   UNL     1       2.896   1.946  -0.124  1.00  0.00    -0.027 C 
ATOM     13  C   UNL     1       2.733   1.913   1.208  1.00  0.00    -0.027 C 
BRANCH  13  14
ATOM     14  C   UNL     1       1.666   1.188   1.976  1.00  0.00     0.054 C 
BRANCH  14  15
ATOM     15  C   UNL     1       2.253   0.157   2.896  1.00  0.00    -0.027 C 
ATOM     16  C   UNL     1       2.031  -1.160   2.781  1.00  0.00    -0.031 C 
BRANCH  16  17
ATOM     17  C   UNL     1       1.166  -1.772   1.717  1.00  0.00     0.027 C 
BRANCH  17  18
ATOM     18  C   UNL     1       1.982  -2.096   0.463  1.00  0.00     0.004 C 
BRANCH  18  19
ATOM     19  C   UNL     1       1.113  -2.756  -0.610  1.00  0.00     0.000 C 
BRANCH  19  20
ATOM     20  C   UNL     1       1.897  -3.166  -1.858  1.00  0.00    -0.003 C 
ATOM     21  C   UNL     1       1.056  -3.888  -2.899  1.00  0.00     0.004 C 
ENDBRANCH  19  20
ENDBRANCH  18  19
ENDBRANCH  17  18
ENDBRANCH  16  17
ENDBRANCH  14  15
ENDBRANCH  13  14
ENDBRANCH   1  12
TORSDOF 14
