REMARK SMILES OC[C@H]1O[C@@H](O)[C@H](O)[C@@H](O)[C@@H]1O
REMARK SMILES IDX 3 1 11 2 9 3 7 4 5 5 4 6 2 7 1 8 12 10 10 12 6 14 8 16
REMARK H PARENT 1 9 12 11 10 13 6 15 8 17
ROOT
ATOM      1  C   UNL     1      -1.024   0.295   0.461  1.00  0.00     0.178 C 
ATOM      2  C   UNL     1       0.246   1.115   0.181  1.00  0.00     0.177 C 
ATOM      3  C   UNL     1       1.454   0.172   0.111  1.00  0.00     0.179 C 
ATOM      4  C   UNL     1       1.200  -0.958  -0.883  1.00  0.00     0.201 C 
ATOM      5  C   UNL     1      -0.111  -1.673  -0.514  1.00  0.00     0.279 C 
ATOM      6  O   UNL     1      -1.188  -0.740  -0.526  1.00  0.00    -0.342 OA
ENDROOT
BRANCH   1   7
ATOM      7  C   UNL     1      -2.285   1.162   0.405  1.00  0.00     0.191 C 
BRANCH   7   8
ATOM      8  O   UNL     1      -3.433   0.357   0.669  1.00  0.00    -0.394 OA
ATOM      9  H   UNL     1      -3.344  -0.427   0.091  1.00  0.00     0.210 HD
ENDBRANCH   7   8
ENDBRANCH   1   7
BRANCH   2  10
ATOM     10  O   UNL     1       0.512   2.083   1.200  1.00  0.00    -0.387 OA
ATOM     11  H   UNL     1      -0.121   2.817   1.098  1.00  0.00     0.211 HD
ENDBRANCH   2  10
BRANCH   3  12
ATOM     12  O   UNL     1       2.626   0.898  -0.293  1.00  0.00    -0.387 OA
ATOM     13  H   UNL     1       2.670   1.667   0.310  1.00  0.00     0.211 HD
ENDBRANCH   3  12
BRANCH   5  14
ATOM     14  O   UNL     1      -0.380  -2.698  -1.463  1.00  0.00    -0.366 OA
ATOM     15  H   UNL     1       0.490  -2.963  -1.817  1.00  0.00     0.213 HD
ENDBRANCH   5  14
BRANCH   4  16
ATOM     16  O   UNL     1       2.296  -1.881  -0.881  1.00  0.00    -0.385 OA
ATOM     17  H   UNL     1       3.098  -1.321  -0.930  1.00  0.00     0.211 HD
ENDBRANCH   4  16
TORSDOF 6
