REMARK SMILES CCCCCCCCCCCCCCCCC(=O)O
REMARK SMILES IDX 10 1 11 2 12 3 13 4 14 5 15 6 16 7 17 8 18 9 19 10 9 12 8 13
REMARK SMILES IDX 7 14 6 15 5 16 4 17 3 18 2 19 1 20
REMARK H PARENT 19 11
ROOT
ATOM      1  C   UNL     1       0.166   0.542   0.010  1.00  0.00     0.000 C 
ENDROOT
BRANCH   1   2
ATOM      2  C   UNL     1       1.439  -0.307   0.033  1.00  0.00     0.000 C 
BRANCH   2   3
ATOM      3  C   UNL     1       2.691   0.574   0.022  1.00  0.00     0.000 C 
BRANCH   3   4
ATOM      4  C   UNL     1       3.965  -0.274   0.008  1.00  0.00     0.000 C 
BRANCH   4   5
ATOM      5  C   UNL     1       5.250   0.559  -0.025  1.00  0.00     0.001 C 
BRANCH   5   6
ATOM      6  C   UNL     1       6.524  -0.288  -0.015  1.00  0.00     0.012 C 
BRANCH   6   7
ATOM      7  C   UNL     1       7.774   0.591  -0.036  1.00  0.00     0.122 C 
BRANCH   7   8
ATOM      8  C   UNL     1       9.039  -0.230   0.011  1.00  0.00     0.303 C 
ATOM      9  O   UNL     1       9.106  -1.448   0.076  1.00  0.00    -0.252 OA
BRANCH   8  10
ATOM     10  O   UNL     1      10.124   0.585  -0.034  1.00  0.00    -0.481 OA
ATOM     11  H   UNL     1      10.963   0.078  -0.007  1.00  0.00     0.296 HD
ENDBRANCH   8  10
ENDBRANCH   7   8
ENDBRANCH   6   7
ENDBRANCH   5   6
ENDBRANCH   4   5
ENDBRANCH   3   4
ENDBRANCH   2   3
ENDBRANCH   1   2
BRANCH   1  12
ATOM     12  C   UNL     1      -1.119  -0.287  -0.071  1.00  0.00     0.000 C 
BRANCH  12  13
ATOM     13  C   UNL     1      -2.430   0.505  -0.036  1.00  0.00    -0.000 C 
BRANCH  13  14
ATOM     14  C   UNL     1      -3.678  -0.379  -0.063  1.00  0.00    -0.000 C 
BRANCH  14  15
ATOM     15  C   UNL     1      -4.953   0.459   0.065  1.00  0.00    -0.000 C 
BRANCH  15  16
ATOM     16  C   UNL     1      -6.203  -0.422   0.004  1.00  0.00    -0.000 C 
BRANCH  16  17
ATOM     17  C   UNL     1      -7.512   0.368   0.095  1.00  0.00    -0.000 C 
BRANCH  17  18
ATOM     18  C   UNL     1      -8.798  -0.460   0.017  1.00  0.00    -0.000 C 
BRANCH  18  19
ATOM     19  C   UNL     1     -10.071   0.386   0.056  1.00  0.00    -0.003 C 
ATOM     20  C   UNL     1     -11.314  -0.474  -0.116  1.00  0.00     0.004 C 
ENDBRANCH  18  19
ENDBRANCH  17  18
ENDBRANCH  16  17
ENDBRANCH  15  16
ENDBRANCH  14  15
ENDBRANCH  13  14
ENDBRANCH  12  13
ENDBRANCH   1  12
TORSDOF 16
