REMARK SMILES CCCCC/C=C\C/C=C\CCCC/C=C\CC(=O)OC
REMARK SMILES IDX 11 1 12 2 13 3 14 4 15 5 16 6 17 7 18 8 19 9 20 10 21 11
REMARK SMILES IDX 10 12 9 13 8 14 7 15 6 16 5 17 4 18 3 19 2 20 1 21
REMARK H PARENT
ROOT
ATOM      1  C   UNL     1      -2.016   2.034  -1.226  1.00  0.00     0.027 C 
ENDROOT
BRANCH   1   2
ATOM      2  C   UNL     1      -0.617   2.395  -0.723  1.00  0.00     0.004 C 
BRANCH   2   3
ATOM      3  C   UNL     1       0.469   1.631  -1.488  1.00  0.00     0.004 C 
BRANCH   3   4
ATOM      4  C   UNL     1       1.889   2.015  -1.060  1.00  0.00     0.027 C 
BRANCH   4   5
ATOM      5  C   UNL     1       2.952   1.310  -1.852  1.00  0.00    -0.031 C 
ATOM      6  C   UNL     1       3.518   0.157  -1.468  1.00  0.00    -0.020 C 
BRANCH   6   7
ATOM      7  C   UNL     1       3.164  -0.569  -0.208  1.00  0.00     0.149 C 
BRANCH   7   8
ATOM      8  C   UNL     1       4.051  -0.099   0.926  1.00  0.00     0.309 C 
ATOM      9  O   UNL     1       4.901   0.777   0.846  1.00  0.00    -0.252 OA
BRANCH   8  10
ATOM     10  O   UNL     1       3.721  -0.789   2.058  1.00  0.00    -0.469 OA
ATOM     11  C   UNL     1       4.455  -0.429   3.233  1.00  0.00     0.282 C 
ENDBRANCH   8  10
ENDBRANCH   7   8
ENDBRANCH   6   7
ENDBRANCH   4   5
ENDBRANCH   3   4
ENDBRANCH   2   3
ENDBRANCH   1   2
BRANCH   1  12
ATOM     12  C   UNL     1      -3.066   2.819  -0.497  1.00  0.00    -0.031 C 
ATOM     13  C   UNL     1      -3.630   2.425   0.654  1.00  0.00    -0.027 C 
BRANCH  13  14
ATOM     14  C   UNL     1      -3.277   1.146   1.356  1.00  0.00     0.054 C 
BRANCH  14  15
ATOM     15  C   UNL     1      -4.454   0.216   1.415  1.00  0.00    -0.027 C 
ATOM     16  C   UNL     1      -4.346  -1.120   1.360  1.00  0.00    -0.031 C 
BRANCH  16  17
ATOM     17  C   UNL     1      -3.039  -1.847   1.235  1.00  0.00     0.027 C 
BRANCH  17  18
ATOM     18  C   UNL     1      -2.676  -2.172  -0.218  1.00  0.00     0.004 C 
BRANCH  18  19
ATOM     19  C   UNL     1      -1.320  -2.857  -0.424  1.00  0.00     0.000 C 
BRANCH  19  20
ATOM     20  C   UNL     1      -1.015  -3.180  -1.887  1.00  0.00    -0.003 C 
ATOM     21  C   UNL     1       0.336  -3.863  -2.031  1.00  0.00     0.004 C 
ENDBRANCH  19  20
ENDBRANCH  18  19
ENDBRANCH  17  18
ENDBRANCH  16  17
ENDBRANCH  14  15
ENDBRANCH  13  14
ENDBRANCH   1  12
TORSDOF 14
