REMARK SMILES CCCCCCCCCCCCCC(=O)OC
REMARK SMILES IDX 9 1 10 2 11 3 12 4 13 5 14 6 15 7 16 8 17 9 8 10 7 11 6 12
REMARK SMILES IDX 5 13 4 14 3 15 2 16 1 17
REMARK H PARENT
ROOT
ATOM      1  C   UNL     1       0.580   0.320   0.287  1.00  0.00     0.000 C 
ENDROOT
BRANCH   1   2
ATOM      2  C   UNL     1       1.733   1.244  -0.112  1.00  0.00     0.000 C 
BRANCH   2   3
ATOM      3  C   UNL     1       3.075   0.695   0.372  1.00  0.00     0.001 C 
BRANCH   3   4
ATOM      4  C   UNL     1       4.284   1.555  -0.018  1.00  0.00     0.012 C 
BRANCH   4   5
ATOM      5  C   UNL     1       5.631   0.992   0.436  1.00  0.00     0.123 C 
BRANCH   5   6
ATOM      6  C   UNL     1       5.991  -0.321  -0.221  1.00  0.00     0.305 C 
ATOM      7  O   UNL     1       5.645  -0.662  -1.344  1.00  0.00    -0.252 OA
BRANCH   6   8
ATOM      8  O   UNL     1       6.789  -1.041   0.622  1.00  0.00    -0.469 OA
ATOM      9  C   UNL     1       7.242  -2.300   0.115  1.00  0.00     0.282 C 
ENDBRANCH   6   8
ENDBRANCH   5   6
ENDBRANCH   4   5
ENDBRANCH   3   4
ENDBRANCH   2   3
ENDBRANCH   1   2
BRANCH   1  10
ATOM     10  C   UNL     1      -0.767   0.885  -0.167  1.00  0.00     0.000 C 
BRANCH  10  11
ATOM     11  C   UNL     1      -1.924  -0.022   0.260  1.00  0.00     0.000 C 
BRANCH  11  12
ATOM     12  C   UNL     1      -3.267   0.529  -0.224  1.00  0.00    -0.000 C 
BRANCH  12  13
ATOM     13  C   UNL     1      -4.459  -0.357   0.150  1.00  0.00    -0.000 C 
BRANCH  13  14
ATOM     14  C   UNL     1      -5.809   0.229  -0.269  1.00  0.00    -0.000 C 
BRANCH  14  15
ATOM     15  C   UNL     1      -6.966  -0.660   0.192  1.00  0.00    -0.000 C 
BRANCH  15  16
ATOM     16  C   UNL     1      -8.314  -0.094  -0.253  1.00  0.00    -0.003 C 
ATOM     17  C   UNL     1      -9.464  -0.992   0.175  1.00  0.00     0.004 C 
ENDBRANCH  15  16
ENDBRANCH  14  15
ENDBRANCH  13  14
ENDBRANCH  12  13
ENDBRANCH  11  12
ENDBRANCH  10  11
ENDBRANCH   1  10
TORSDOF 13
