REMARK SMILES CCCCCCCCCCCCCCC(=O)OC
REMARK SMILES IDX 9 1 10 2 11 3 12 4 13 5 14 6 15 7 16 8 17 9 18 10 8 11 7 12
REMARK SMILES IDX 6 13 5 14 4 15 3 16 2 17 1 18
REMARK H PARENT
ROOT
ATOM      1  C   UNL     1       0.397   0.318   0.130  1.00  0.00     0.000 C 
ENDROOT
BRANCH   1   2
ATOM      2  C   UNL     1      -0.850  -0.569   0.100  1.00  0.00     0.000 C 
BRANCH   2   3
ATOM      3  C   UNL     1      -2.128   0.272   0.116  1.00  0.00     0.000 C 
BRANCH   3   4
ATOM      4  C   UNL     1      -3.409  -0.564   0.054  1.00  0.00     0.001 C 
BRANCH   4   5
ATOM      5  C   UNL     1      -4.724   0.225   0.045  1.00  0.00     0.012 C 
BRANCH   5   6
ATOM      6  C   UNL     1      -5.988  -0.631   0.041  1.00  0.00     0.123 C 
BRANCH   6   7
ATOM      7  C   UNL     1      -7.247   0.196  -0.046  1.00  0.00     0.305 C 
ATOM      8  O   UNL     1      -7.256   1.420  -0.072  1.00  0.00    -0.252 OA
BRANCH   7   9
ATOM      9  O   UNL     1      -8.339  -0.619  -0.089  1.00  0.00    -0.469 OA
ATOM     10  C   UNL     1      -9.602   0.049  -0.173  1.00  0.00     0.282 C 
ENDBRANCH   7   9
ENDBRANCH   6   7
ENDBRANCH   5   6
ENDBRANCH   4   5
ENDBRANCH   3   4
ENDBRANCH   2   3
ENDBRANCH   1   2
BRANCH   1  11
ATOM     11  C   UNL     1       1.676  -0.520   0.080  1.00  0.00     0.000 C 
BRANCH  11  12
ATOM     12  C   UNL     1       2.921   0.370   0.078  1.00  0.00    -0.000 C 
BRANCH  12  13
ATOM     13  C   UNL     1       4.233  -0.417  -0.004  1.00  0.00    -0.000 C 
BRANCH  13  14
ATOM     14  C   UNL     1       5.516   0.417   0.075  1.00  0.00    -0.000 C 
BRANCH  14  15
ATOM     15  C   UNL     1       6.791  -0.418  -0.067  1.00  0.00    -0.000 C 
BRANCH  15  16
ATOM     16  C   UNL     1       8.074   0.415   0.019  1.00  0.00    -0.000 C 
BRANCH  16  17
ATOM     17  C   UNL     1       9.345  -0.406  -0.197  1.00  0.00    -0.003 C 
ATOM     18  C   UNL     1      10.590   0.462  -0.090  1.00  0.00     0.004 C 
ENDBRANCH  16  17
ENDBRANCH  15  16
ENDBRANCH  14  15
ENDBRANCH  13  14
ENDBRANCH  12  13
ENDBRANCH  11  12
ENDBRANCH   1  11
TORSDOF 14
