REMARK SMILES CCCCCCCCCCCCCCCCC(=O)OC
REMARK SMILES IDX 10 1 9 2 8 3 7 4 6 5 5 6 4 7 3 8 2 9 1 10 11 11 12 12 13 13
REMARK SMILES IDX 14 14 15 15 16 16 17 17 18 18 19 19 20 20
REMARK H PARENT
ROOT
ATOM      1  C   UNL     1      -0.472  -1.095   1.655  1.00  0.00     0.000 C 
ENDROOT
BRANCH   1   2
ATOM      2  C   UNL     1       0.291   0.233   1.679  1.00  0.00     0.000 C 
BRANCH   2   3
ATOM      3  C   UNL     1       1.621   0.121   0.929  1.00  0.00    -0.000 C 
BRANCH   3   4
ATOM      4  C   UNL     1       2.389   1.444   0.962  1.00  0.00    -0.000 C 
BRANCH   4   5
ATOM      5  C   UNL     1       3.676   1.421   0.131  1.00  0.00    -0.000 C 
BRANCH   5   6
ATOM      6  C   UNL     1       4.728   0.448   0.672  1.00  0.00    -0.000 C 
BRANCH   6   7
ATOM      7  C   UNL     1       6.094   0.589  -0.009  1.00  0.00    -0.000 C 
BRANCH   7   8
ATOM      8  C   UNL     1       6.079   0.189  -1.487  1.00  0.00    -0.000 C 
BRANCH   8   9
ATOM      9  C   UNL     1       7.445   0.323  -2.164  1.00  0.00    -0.003 C 
ATOM     10  C   UNL     1       8.485  -0.654  -1.637  1.00  0.00     0.004 C 
ENDBRANCH   8   9
ENDBRANCH   7   8
ENDBRANCH   6   7
ENDBRANCH   5   6
ENDBRANCH   4   5
ENDBRANCH   3   4
ENDBRANCH   2   3
ENDBRANCH   1   2
BRANCH   1  11
ATOM     11  C   UNL     1      -1.812  -1.030   2.396  1.00  0.00     0.000 C 
BRANCH  11  12
ATOM     12  C   UNL     1      -3.029  -0.788   1.496  1.00  0.00     0.000 C 
BRANCH  12  13
ATOM     13  C   UNL     1      -3.027   0.570   0.794  1.00  0.00     0.000 C 
BRANCH  13  14
ATOM     14  C   UNL     1      -4.360   0.901   0.112  1.00  0.00     0.001 C 
BRANCH  14  15
ATOM     15  C   UNL     1      -4.693  -0.037  -1.053  1.00  0.00     0.012 C 
BRANCH  15  16
ATOM     16  C   UNL     1      -5.958   0.388  -1.798  1.00  0.00     0.123 C 
BRANCH  16  17
ATOM     17  C   UNL     1      -7.224   0.139  -1.009  1.00  0.00     0.305 C 
ATOM     18  O   UNL     1      -7.317  -0.576  -0.022  1.00  0.00    -0.252 OA
BRANCH  17  19
ATOM     19  O   UNL     1      -8.259   0.814  -1.587  1.00  0.00    -0.469 OA
ATOM     20  C   UNL     1      -9.511   0.634  -0.924  1.00  0.00     0.282 C 
ENDBRANCH  17  19
ENDBRANCH  16  17
ENDBRANCH  15  16
ENDBRANCH  14  15
ENDBRANCH  13  14
ENDBRANCH  12  13
ENDBRANCH  11  12
ENDBRANCH   1  11
TORSDOF 16
