REMARK SMILES CCCCCCCCCCCCCCCCCC(=O)OC
REMARK SMILES IDX 10 1 9 2 8 3 7 4 6 5 5 6 4 7 3 8 2 9 1 10 11 11 12 12 13 13
REMARK SMILES IDX 14 14 15 15 16 16 17 17 18 18 19 19 20 20 21 21
REMARK H PARENT
ROOT
ATOM      1  C   UNL     1      -0.093  -1.381   1.913  1.00  0.00     0.000 C 
ENDROOT
BRANCH   1   2
ATOM      2  C   UNL     1      -0.378  -2.675   1.147  1.00  0.00     0.000 C 
BRANCH   2   3
ATOM      3  C   UNL     1      -1.256  -2.557  -0.106  1.00  0.00    -0.000 C 
BRANCH   3   4
ATOM      4  C   UNL     1      -2.681  -2.055   0.151  1.00  0.00    -0.000 C 
BRANCH   4   5
ATOM      5  C   UNL     1      -2.846  -0.554  -0.104  1.00  0.00    -0.000 C 
BRANCH   5   6
ATOM      6  C   UNL     1      -4.291  -0.107   0.136  1.00  0.00    -0.000 C 
BRANCH   6   7
ATOM      7  C   UNL     1      -4.457   1.392  -0.126  1.00  0.00    -0.000 C 
BRANCH   7   8
ATOM      8  C   UNL     1      -5.856   1.916   0.207  1.00  0.00    -0.000 C 
BRANCH   8   9
ATOM      9  C   UNL     1      -6.950   1.350  -0.699  1.00  0.00    -0.003 C 
ATOM     10  C   UNL     1      -8.299   1.987  -0.404  1.00  0.00     0.004 C 
ENDBRANCH   8   9
ENDBRANCH   7   8
ENDBRANCH   6   7
ENDBRANCH   5   6
ENDBRANCH   4   5
ENDBRANCH   3   4
ENDBRANCH   2   3
ENDBRANCH   1   2
BRANCH   1  11
ATOM     11  C   UNL     1       0.664  -0.296   1.136  1.00  0.00     0.000 C 
BRANCH  11  12
ATOM     12  C   UNL     1       2.183  -0.298   1.347  1.00  0.00     0.000 C 
BRANCH  12  13
ATOM     13  C   UNL     1       2.948  -1.497   0.785  1.00  0.00     0.000 C 
BRANCH  13  14
ATOM     14  C   UNL     1       2.813  -1.720  -0.722  1.00  0.00     0.000 C 
BRANCH  14  15
ATOM     15  C   UNL     1       3.250  -0.565  -1.629  1.00  0.00     0.001 C 
BRANCH  15  16
ATOM     16  C   UNL     1       4.756  -0.279  -1.629  1.00  0.00     0.012 C 
BRANCH  16  17
ATOM     17  C   UNL     1       5.175   0.810  -0.642  1.00  0.00     0.123 C 
BRANCH  17  18
ATOM     18  C   UNL     1       6.648   1.134  -0.755  1.00  0.00     0.305 C 
ATOM     19  O   UNL     1       7.451   0.556  -1.472  1.00  0.00    -0.252 OA
BRANCH  18  20
ATOM     20  O   UNL     1       6.947   2.172   0.078  1.00  0.00    -0.469 OA
ATOM     21  C   UNL     1       8.321   2.558   0.053  1.00  0.00     0.282 C 
ENDBRANCH  18  20
ENDBRANCH  17  18
ENDBRANCH  16  17
ENDBRANCH  15  16
ENDBRANCH  14  15
ENDBRANCH  13  14
ENDBRANCH  12  13
ENDBRANCH  11  12
ENDBRANCH   1  11
TORSDOF 17
