REMARK SMILES COC(=O)CCCCCCCCCCCCCCCCCF
REMARK SMILES IDX 12 1 11 2 10 3 9 4 8 5 7 6 6 7 5 8 3 9 4 10 2 11 1 12 13 13
REMARK SMILES IDX 14 14 15 15 16 16 17 17 18 18 19 19 20 20 21 21 22 22
REMARK H PARENT
ROOT
ATOM      1  C   UNL     1       0.566  -0.047  -1.433  1.00  0.00     0.000 C 
ENDROOT
BRANCH   1   2
ATOM      2  C   UNL     1       1.101  -1.448  -1.740  1.00  0.00     0.000 C 
BRANCH   2   3
ATOM      3  C   UNL     1       2.456  -1.440  -2.457  1.00  0.00     0.000 C 
BRANCH   3   4
ATOM      4  C   UNL     1       3.611  -0.773  -1.702  1.00  0.00     0.000 C 
BRANCH   4   5
ATOM      5  C   UNL     1       3.894  -1.413  -0.340  1.00  0.00     0.000 C 
BRANCH   5   6
ATOM      6  C   UNL     1       5.175  -0.890   0.318  1.00  0.00     0.001 C 
BRANCH   6   7
ATOM      7  C   UNL     1       5.096   0.591   0.703  1.00  0.00     0.012 C 
BRANCH   7   8
ATOM      8  C   UNL     1       6.319   1.050   1.494  1.00  0.00     0.123 C 
BRANCH   8   9
ATOM      9  C   UNL     1       7.577   1.049   0.663  1.00  0.00     0.305 C 
ATOM     10  O   UNL     1       8.497   0.257   0.813  1.00  0.00    -0.252 OA
BRANCH   9  11
ATOM     11  O   UNL     1       7.538   2.046  -0.264  1.00  0.00    -0.469 OA
ATOM     12  C   UNL     1       8.695   2.105  -1.099  1.00  0.00     0.282 C 
ENDBRANCH   9  11
ENDBRANCH   8   9
ENDBRANCH   7   8
ENDBRANCH   6   7
ENDBRANCH   5   6
ENDBRANCH   4   5
ENDBRANCH   3   4
ENDBRANCH   2   3
ENDBRANCH   1   2
BRANCH   1  13
ATOM     13  C   UNL     1      -0.791  -0.055  -0.720  1.00  0.00     0.000 C 
BRANCH  13  14
ATOM     14  C   UNL     1      -1.941  -0.541  -1.607  1.00  0.00     0.000 C 
BRANCH  14  15
ATOM     15  C   UNL     1      -3.297  -0.546  -0.892  1.00  0.00     0.000 C 
BRANCH  15  16
ATOM     16  C   UNL     1      -3.800   0.855  -0.533  1.00  0.00     0.000 C 
BRANCH  16  17
ATOM     17  C   UNL     1      -5.248   0.866  -0.030  1.00  0.00     0.000 C 
BRANCH  17  18
ATOM     18  C   UNL     1      -5.434   0.115   1.291  1.00  0.00     0.000 C 
BRANCH  18  19
ATOM     19  C   UNL     1      -6.823   0.309   1.908  1.00  0.00     0.003 C 
BRANCH  19  20
ATOM     20  C   UNL     1      -7.950  -0.290   1.064  1.00  0.00     0.034 C 
BRANCH  20  21
ATOM     21  C   UNL     1      -9.293  -0.169   1.766  1.00  0.00     0.214 C 
ATOM     22  F   UNL     1      -9.265  -0.892   2.916  1.00  0.00    -0.251 F 
ENDBRANCH  20  21
ENDBRANCH  19  20
ENDBRANCH  18  19
ENDBRANCH  17  18
ENDBRANCH  16  17
ENDBRANCH  15  16
ENDBRANCH  14  15
ENDBRANCH  13  14
ENDBRANCH   1  13
TORSDOF 18
