REMARK SMILES CCCCCCCCCCCCCCCC(=O)OC
REMARK SMILES IDX 10 1 11 2 12 3 13 4 14 5 15 6 16 7 17 8 18 9 19 10 9 11 8 12
REMARK SMILES IDX 7 13 6 14 5 15 4 16 3 17 2 18 1 19
REMARK H PARENT
ROOT
ATOM      1  C   UNL     1      -0.223  -0.333  -0.212  1.00  0.00     0.000 C 
ENDROOT
BRANCH   1   2
ATOM      2  C   UNL     1      -1.503   0.509  -0.251  1.00  0.00     0.000 C 
BRANCH   2   3
ATOM      3  C   UNL     1      -2.785  -0.324  -0.177  1.00  0.00     0.000 C 
BRANCH   3   4
ATOM      4  C   UNL     1      -4.024   0.573  -0.138  1.00  0.00     0.001 C 
BRANCH   4   5
ATOM      5  C   UNL     1      -5.344  -0.201  -0.044  1.00  0.00     0.012 C 
BRANCH   5   6
ATOM      6  C   UNL     1      -6.599   0.663   0.066  1.00  0.00     0.123 C 
BRANCH   6   7
ATOM      7  C   UNL     1      -7.864  -0.162   0.110  1.00  0.00     0.305 C 
ATOM      8  O   UNL     1      -7.887  -1.384   0.039  1.00  0.00    -0.252 OA
BRANCH   7   9
ATOM      9  O   UNL     1      -8.947   0.657   0.239  1.00  0.00    -0.469 OA
ATOM     10  C   UNL     1     -10.217   0.001   0.296  1.00  0.00     0.282 C 
ENDBRANCH   7   9
ENDBRANCH   6   7
ENDBRANCH   5   6
ENDBRANCH   4   5
ENDBRANCH   3   4
ENDBRANCH   2   3
ENDBRANCH   1   2
BRANCH   1  11
ATOM     11  C   UNL     1       1.094   0.452  -0.224  1.00  0.00     0.000 C 
BRANCH  11  12
ATOM     12  C   UNL     1       2.339  -0.435  -0.154  1.00  0.00     0.000 C 
BRANCH  12  13
ATOM     13  C   UNL     1       3.619   0.404  -0.131  1.00  0.00    -0.000 C 
BRANCH  13  14
ATOM     14  C   UNL     1       4.861  -0.484  -0.025  1.00  0.00    -0.000 C 
BRANCH  14  15
ATOM     15  C   UNL     1       6.142   0.352  -0.030  1.00  0.00    -0.000 C 
BRANCH  15  16
ATOM     16  C   UNL     1       7.420  -0.489   0.043  1.00  0.00    -0.000 C 
BRANCH  16  17
ATOM     17  C   UNL     1       8.697   0.353   0.116  1.00  0.00    -0.000 C 
BRANCH  17  18
ATOM     18  C   UNL     1       9.974  -0.490   0.186  1.00  0.00    -0.003 C 
ATOM     19  C   UNL     1      11.246   0.337   0.289  1.00  0.00     0.004 C 
ENDBRANCH  17  18
ENDBRANCH  16  17
ENDBRANCH  15  16
ENDBRANCH  14  15
ENDBRANCH  13  14
ENDBRANCH  12  13
ENDBRANCH  11  12
ENDBRANCH   1  11
TORSDOF 15
