REMARK SMILES CC/C=C\C/C=C\C/C=C\C/C=C\CCC(=O)OC
REMARK SMILES IDX 10 1 9 2 11 3 12 4 13 5 14 6 15 7 16 8 17 9 18 10 19 11 8 12
REMARK SMILES IDX 7 13 6 14 5 15 4 16 3 17 2 18 1 19
REMARK H PARENT
ROOT
ATOM      1  C   UNL     1      -0.852   3.102  -0.951  1.00  0.00    -0.027 C 
ATOM      2  C   UNL     1      -1.153   2.426  -2.070  1.00  0.00    -0.027 C 
ENDROOT
BRANCH   1   3
ATOM      3  C   UNL     1      -0.887   2.501   0.423  1.00  0.00     0.054 C 
BRANCH   3   4
ATOM      4  C   UNL     1       0.116   3.148   1.332  1.00  0.00    -0.027 C 
ATOM      5  C   UNL     1       1.117   2.482   1.926  1.00  0.00    -0.030 C 
BRANCH   5   6
ATOM      6  C   UNL     1       1.357   1.009   1.754  1.00  0.00     0.039 C 
BRANCH   6   7
ATOM      7  C   UNL     1       2.291   0.704   0.582  1.00  0.00     0.127 C 
BRANCH   7   8
ATOM      8  C   UNL     1       2.557  -0.774   0.391  1.00  0.00     0.305 C 
ATOM      9  O   UNL     1       2.100  -1.671   1.086  1.00  0.00    -0.252 OA
BRANCH   8  10
ATOM     10  O   UNL     1       3.401  -0.935  -0.672  1.00  0.00    -0.469 OA
ATOM     11  C   UNL     1       3.764  -2.286  -0.974  1.00  0.00     0.282 C 
ENDBRANCH   8  10
ENDBRANCH   7   8
ENDBRANCH   6   7
ENDBRANCH   5   6
ENDBRANCH   3   4
ENDBRANCH   1   3
BRANCH   2  12
ATOM     12  C   UNL     1      -1.562   0.982  -2.086  1.00  0.00     0.054 C 
BRANCH  12  13
ATOM     13  C   UNL     1      -0.450  -0.010  -2.292  1.00  0.00    -0.027 C 
ATOM     14  C   UNL     1      -0.409  -1.293  -1.897  1.00  0.00    -0.027 C 
BRANCH  14  15
ATOM     15  C   UNL     1      -1.526  -1.968  -1.152  1.00  0.00     0.054 C 
BRANCH  15  16
ATOM     16  C   UNL     1      -1.175  -2.481   0.220  1.00  0.00    -0.027 C 
ATOM     17  C   UNL     1      -1.712  -2.117   1.396  1.00  0.00    -0.031 C 
BRANCH  17  18
ATOM     18  C   UNL     1      -2.800  -1.091   1.531  1.00  0.00     0.023 C 
ATOM     19  C   UNL     1      -4.179  -1.726   1.450  1.00  0.00     0.008 C 
ENDBRANCH  17  18
ENDBRANCH  15  16
ENDBRANCH  14  15
ENDBRANCH  12  13
ENDBRANCH   2  12
TORSDOF 11
