REMARK SMILES CCCCCC/C=C\CCCCCCCC(=O)OC
REMARK SMILES IDX 10 1 11 2 12 3 13 4 14 5 15 6 16 7 17 8 18 9 19 10 9 11 8 12
REMARK SMILES IDX 7 13 6 14 5 15 4 16 3 17 2 18 1 19
REMARK H PARENT
ROOT
ATOM      1  C   UNL     1       2.556   2.663   0.185  1.00  0.00     0.004 C 
ENDROOT
BRANCH   1   2
ATOM      2  C   UNL     1       1.348   1.730   0.321  1.00  0.00     0.000 C 
BRANCH   2   3
ATOM      3  C   UNL     1       0.048   2.520   0.486  1.00  0.00     0.000 C 
BRANCH   3   4
ATOM      4  C   UNL     1      -1.158   1.583   0.580  1.00  0.00     0.001 C 
BRANCH   4   5
ATOM      5  C   UNL     1      -2.466   2.370   0.704  1.00  0.00     0.012 C 
BRANCH   5   6
ATOM      6  C   UNL     1      -3.684   1.460   0.828  1.00  0.00     0.123 C 
BRANCH   6   7
ATOM      7  C   UNL     1      -3.884   0.588  -0.387  1.00  0.00     0.305 C 
ATOM      8  O   UNL     1      -3.587   0.930  -1.525  1.00  0.00    -0.252 OA
BRANCH   7   9
ATOM      9  O   UNL     1      -4.429  -0.608  -0.023  1.00  0.00    -0.469 OA
ATOM     10  C   UNL     1      -4.665  -1.528  -1.094  1.00  0.00     0.282 C 
ENDBRANCH   7   9
ENDBRANCH   6   7
ENDBRANCH   5   6
ENDBRANCH   4   5
ENDBRANCH   3   4
ENDBRANCH   2   3
ENDBRANCH   1   2
BRANCH   1  11
ATOM     11  C   UNL     1       3.884   1.904   0.050  1.00  0.00     0.027 C 
BRANCH  11  12
ATOM     12  C   UNL     1       4.042   0.967  -1.120  1.00  0.00    -0.031 C 
ATOM     13  C   UNL     1       4.226  -0.361  -1.066  1.00  0.00    -0.031 C 
BRANCH  13  14
ATOM     14  C   UNL     1       4.308  -1.156   0.204  1.00  0.00     0.027 C 
BRANCH  14  15
ATOM     15  C   UNL     1       3.250  -2.263   0.294  1.00  0.00     0.004 C 
BRANCH  15  16
ATOM     16  C   UNL     1       1.787  -1.809   0.194  1.00  0.00     0.000 C 
BRANCH  16  17
ATOM     17  C   UNL     1       0.780  -2.945   0.383  1.00  0.00    -0.000 C 
BRANCH  17  18
ATOM     18  C   UNL     1      -0.675  -2.467   0.360  1.00  0.00    -0.003 C 
ATOM     19  C   UNL     1      -1.679  -3.579   0.625  1.00  0.00     0.004 C 
ENDBRANCH  17  18
ENDBRANCH  16  17
ENDBRANCH  15  16
ENDBRANCH  14  15
ENDBRANCH  13  14
ENDBRANCH  11  12
ENDBRANCH   1  11
TORSDOF 14
