REMARK SMILES CCCCC/C=C\C/C=C\C/C=C\CCCCC(=O)OC
REMARK SMILES IDX 11 1 10 2 9 3 8 4 7 5 6 6 5 7 4 8 3 9 2 10 1 11 12 12 13 13
REMARK SMILES IDX 14 14 15 15 16 16 17 17 18 18 19 19 20 20 21 21
REMARK H PARENT
ROOT
ATOM      1  C   UNL     1       0.195  -1.763  -2.790  1.00  0.00     0.054 C 
ENDROOT
BRANCH   1   2
ATOM      2  C   UNL     1       1.121  -0.585  -2.871  1.00  0.00    -0.027 C 
ATOM      3  C   UNL     1       2.454  -0.591  -3.051  1.00  0.00    -0.027 C 
BRANCH   3   4
ATOM      4  C   UNL     1       3.356  -1.776  -3.194  1.00  0.00     0.054 C 
BRANCH   4   5
ATOM      5  C   UNL     1       4.364  -2.008  -2.099  1.00  0.00    -0.027 C 
ATOM      6  C   UNL     1       4.592  -1.451  -0.896  1.00  0.00    -0.031 C 
BRANCH   6   7
ATOM      7  C   UNL     1       3.899  -0.324  -0.184  1.00  0.00     0.027 C 
BRANCH   7   8
ATOM      8  C   UNL     1       3.085  -0.839   1.005  1.00  0.00     0.004 C 
BRANCH   8   9
ATOM      9  C   UNL     1       2.429   0.279   1.822  1.00  0.00     0.000 C 
BRANCH   9  10
ATOM     10  C   UNL     1       1.331   1.025   1.062  1.00  0.00    -0.003 C 
ATOM     11  C   UNL     1       0.645   2.053   1.949  1.00  0.00     0.004 C 
ENDBRANCH   9  10
ENDBRANCH   8   9
ENDBRANCH   7   8
ENDBRANCH   6   7
ENDBRANCH   4   5
ENDBRANCH   3   4
ENDBRANCH   1   2
BRANCH   1  12
ATOM     12  C   UNL     1      -0.200  -2.042  -1.369  1.00  0.00    -0.027 C 
ATOM     13  C   UNL     1      -1.377  -1.797  -0.771  1.00  0.00    -0.031 C 
BRANCH  13  14
ATOM     14  C   UNL     1      -2.600  -1.178  -1.384  1.00  0.00     0.027 C 
BRANCH  14  15
ATOM     15  C   UNL     1      -2.792   0.290  -0.992  1.00  0.00     0.005 C 
BRANCH  15  16
ATOM     16  C   UNL     1      -3.065   0.492   0.500  1.00  0.00     0.012 C 
BRANCH  16  17
ATOM     17  C   UNL     1      -3.361   1.955   0.814  1.00  0.00     0.123 C 
BRANCH  17  18
ATOM     18  C   UNL     1      -3.602   2.142   2.289  1.00  0.00     0.305 C 
ATOM     19  O   UNL     1      -2.741   2.483   3.089  1.00  0.00    -0.252 OA
BRANCH  18  20
ATOM     20  O   UNL     1      -4.896   1.855   2.597  1.00  0.00    -0.469 OA
ATOM     21  C   UNL     1      -5.205   1.993   3.985  1.00  0.00     0.282 C 
ENDBRANCH  18  20
ENDBRANCH  17  18
ENDBRANCH  16  17
ENDBRANCH  15  16
ENDBRANCH  14  15
ENDBRANCH  13  14
ENDBRANCH   1  12
TORSDOF 14
