REMARK SMILES CCCCCCCCC=CCCCCCCCC(=O)O
REMARK SMILES IDX 11 1 10 2 9 3 8 4 7 5 6 6 5 7 4 8 3 9 2 10 1 11 12 12 13 13
REMARK SMILES IDX 14 14 15 15 16 16 17 17 18 18 19 19 20 20
REMARK H PARENT 20 21
ROOT
ATOM      1  C   UNL     1      -1.621  -3.088   0.031  1.00  0.00     0.027 C 
ENDROOT
BRANCH   1   2
ATOM      2  C   UNL     1      -0.284  -3.454  -0.551  1.00  0.00    -0.031 C 
ATOM      3  C   UNL     1       0.924  -3.208  -0.017  1.00  0.00    -0.031 C 
BRANCH   3   4
ATOM      4  C   UNL     1       1.212  -2.534   1.296  1.00  0.00     0.027 C 
BRANCH   4   5
ATOM      5  C   UNL     1       1.324  -1.011   1.190  1.00  0.00     0.004 C 
BRANCH   5   6
ATOM      6  C   UNL     1       2.490  -0.548   0.309  1.00  0.00     0.000 C 
BRANCH   6   7
ATOM      7  C   UNL     1       2.598   0.979   0.299  1.00  0.00     0.000 C 
BRANCH   7   8
ATOM      8  C   UNL     1       3.667   1.511  -0.662  1.00  0.00    -0.000 C 
BRANCH   8   9
ATOM      9  C   UNL     1       5.094   1.150  -0.241  1.00  0.00    -0.000 C 
BRANCH   9  10
ATOM     10  C   UNL     1       6.161   1.690  -1.198  1.00  0.00    -0.003 C 
ATOM     11  C   UNL     1       6.263   3.207  -1.204  1.00  0.00     0.004 C 
ENDBRANCH   9  10
ENDBRANCH   8   9
ENDBRANCH   7   8
ENDBRANCH   6   7
ENDBRANCH   5   6
ENDBRANCH   4   5
ENDBRANCH   3   4
ENDBRANCH   1   2
BRANCH   1  12
ATOM     12  C   UNL     1      -2.304  -2.012  -0.816  1.00  0.00     0.004 C 
BRANCH  12  13
ATOM     13  C   UNL     1      -3.708  -1.644  -0.324  1.00  0.00     0.000 C 
BRANCH  13  14
ATOM     14  C   UNL     1      -3.717  -1.034   1.081  1.00  0.00     0.000 C 
BRANCH  14  15
ATOM     15  C   UNL     1      -5.065  -0.407   1.450  1.00  0.00     0.001 C 
BRANCH  15  16
ATOM     16  C   UNL     1      -5.151   1.115   1.267  1.00  0.00     0.012 C 
BRANCH  16  17
ATOM     17  C   UNL     1      -5.108   1.601  -0.181  1.00  0.00     0.122 C 
BRANCH  17  18
ATOM     18  C   UNL     1      -3.711   1.814  -0.701  1.00  0.00     0.303 C 
ATOM     19  O   UNL     1      -2.708   2.061  -0.054  1.00  0.00    -0.252 OA
BRANCH  18  20
ATOM     20  O   UNL     1      -3.655   1.746  -2.046  1.00  0.00    -0.481 OA
ATOM     21  H   UNL     1      -2.712   1.915  -2.251  1.00  0.00     0.296 HD
ENDBRANCH  18  20
ENDBRANCH  17  18
ENDBRANCH  16  17
ENDBRANCH  15  16
ENDBRANCH  14  15
ENDBRANCH  13  14
ENDBRANCH  12  13
ENDBRANCH   1  12
TORSDOF 16
