REMARK SMILES CCCCCC/C=C\CCCCCCCC(=O)O
REMARK SMILES IDX 10 1 9 2 8 3 7 4 6 5 5 6 4 7 3 8 2 9 1 10 11 11 12 12 13 13
REMARK SMILES IDX 14 14 15 15 16 16 17 17 18 18
REMARK H PARENT 18 19
ROOT
ATOM      1  C   UNL     1       1.049  -0.666  -0.731  1.00  0.00     0.004 C 
ENDROOT
BRANCH   1   2
ATOM      2  C   UNL     1       0.027  -1.755  -1.071  1.00  0.00     0.027 C 
BRANCH   2   3
ATOM      3  C   UNL     1      -0.792  -2.195   0.110  1.00  0.00    -0.031 C 
ATOM      4  C   UNL     1      -2.002  -1.740   0.474  1.00  0.00    -0.031 C 
BRANCH   4   5
ATOM      5  C   UNL     1      -2.811  -0.665  -0.197  1.00  0.00     0.027 C 
BRANCH   5   6
ATOM      6  C   UNL     1      -3.017   0.527   0.742  1.00  0.00     0.004 C 
BRANCH   6   7
ATOM      7  C   UNL     1      -3.782   1.683   0.095  1.00  0.00     0.000 C 
BRANCH   7   8
ATOM      8  C   UNL     1      -5.213   1.385  -0.366  1.00  0.00    -0.000 C 
BRANCH   8   9
ATOM      9  C   UNL     1      -6.199   1.068   0.762  1.00  0.00    -0.003 C 
ATOM     10  C   UNL     1      -6.369  -0.421   1.026  1.00  0.00     0.004 C 
ENDBRANCH   8   9
ENDBRANCH   7   8
ENDBRANCH   6   7
ENDBRANCH   5   6
ENDBRANCH   4   5
ENDBRANCH   2   3
ENDBRANCH   1   2
BRANCH   1  11
ATOM     11  C   UNL     1       2.146  -1.143   0.228  1.00  0.00     0.000 C 
BRANCH  11  12
ATOM     12  C   UNL     1       3.144  -0.043   0.609  1.00  0.00     0.000 C 
BRANCH  12  13
ATOM     13  C   UNL     1       4.027   0.408  -0.557  1.00  0.00     0.001 C 
BRANCH  13  14
ATOM     14  C   UNL     1       5.018   1.518  -0.180  1.00  0.00     0.012 C 
BRANCH  14  15
ATOM     15  C   UNL     1       6.090   1.115   0.832  1.00  0.00     0.122 C 
BRANCH  15  16
ATOM     16  C   UNL     1       7.053   0.092   0.292  1.00  0.00     0.303 C 
ATOM     17  O   UNL     1       7.269  -0.181  -0.876  1.00  0.00    -0.252 OA
BRANCH  16  18
ATOM     18  O   UNL     1       7.741  -0.521   1.276  1.00  0.00    -0.481 OA
ATOM     19  H   UNL     1       8.337  -1.136   0.799  1.00  0.00     0.296 HD
ENDBRANCH  16  18
ENDBRANCH  15  16
ENDBRANCH  14  15
ENDBRANCH  13  14
ENDBRANCH  12  13
ENDBRANCH  11  12
ENDBRANCH   1  11
TORSDOF 14
