REMARK SMILES CCCCCCCCCCCCCCCC(=O)O
REMARK SMILES IDX 10 1 11 2 12 3 13 4 14 5 15 6 16 7 17 8 18 9 9 11 8 12 7 13
REMARK SMILES IDX 6 14 5 15 4 16 3 17 2 18 1 19
REMARK H PARENT 18 10
ROOT
ATOM      1  C   UNL     1      -0.791  -0.335   0.041  1.00  0.00     0.000 C 
ENDROOT
BRANCH   1   2
ATOM      2  C   UNL     1      -2.072   0.505  -0.021  1.00  0.00     0.000 C 
BRANCH   2   3
ATOM      3  C   UNL     1      -3.354  -0.332  -0.011  1.00  0.00     0.000 C 
BRANCH   3   4
ATOM      4  C   UNL     1      -4.599   0.556   0.005  1.00  0.00     0.001 C 
BRANCH   4   5
ATOM      5  C   UNL     1      -5.917  -0.228  -0.023  1.00  0.00     0.012 C 
BRANCH   5   6
ATOM      6  C   UNL     1      -7.173   0.643  -0.019  1.00  0.00     0.122 C 
BRANCH   6   7
ATOM      7  C   UNL     1      -8.468  -0.131  -0.015  1.00  0.00     0.303 C 
ATOM      8  O   UNL     1      -8.533  -1.353   0.016  1.00  0.00    -0.252 OA
BRANCH   7   9
ATOM      9  O   UNL     1      -9.560   0.669  -0.084  1.00  0.00    -0.481 OA
ATOM     10  H   UNL     1     -10.394   0.152  -0.096  1.00  0.00     0.296 HD
ENDBRANCH   7   9
ENDBRANCH   6   7
ENDBRANCH   5   6
ENDBRANCH   4   5
ENDBRANCH   3   4
ENDBRANCH   2   3
ENDBRANCH   1   2
BRANCH   1  11
ATOM     11  C   UNL     1       0.523   0.451   0.083  1.00  0.00     0.000 C 
BRANCH  11  12
ATOM     12  C   UNL     1       1.770  -0.436   0.058  1.00  0.00     0.000 C 
BRANCH  12  13
ATOM     13  C   UNL     1       3.046   0.409   0.088  1.00  0.00    -0.000 C 
BRANCH  13  14
ATOM     14  C   UNL     1       4.295  -0.472   0.026  1.00  0.00    -0.000 C 
BRANCH  14  15
ATOM     15  C   UNL     1       5.605   0.319   0.091  1.00  0.00    -0.000 C 
BRANCH  15  16
ATOM     16  C   UNL     1       6.893  -0.501  -0.051  1.00  0.00    -0.000 C 
BRANCH  16  17
ATOM     17  C   UNL     1       8.165   0.352  -0.040  1.00  0.00    -0.000 C 
BRANCH  17  18
ATOM     18  C   UNL     1       9.451  -0.478  -0.093  1.00  0.00    -0.003 C 
ATOM     19  C   UNL     1      10.719   0.360  -0.053  1.00  0.00     0.004 C 
ENDBRANCH  17  18
ENDBRANCH  16  17
ENDBRANCH  15  16
ENDBRANCH  14  15
ENDBRANCH  13  14
ENDBRANCH  12  13
ENDBRANCH  11  12
ENDBRANCH   1  11
TORSDOF 15
