REMARK SMILES CCCCCCCCCCCCCCC=O
REMARK SMILES IDX 8 1 9 2 10 3 11 4 12 5 13 6 14 7 15 8 16 9 7 10 6 11 5 12
REMARK SMILES IDX 4 13 3 14 2 15 1 16
REMARK H PARENT
ROOT
ATOM      1  C   UNL     1      -0.581   0.573  -0.050  1.00  0.00     0.000 C 
ENDROOT
BRANCH   1   2
ATOM      2  C   UNL     1       0.712  -0.245  -0.071  1.00  0.00     0.000 C 
BRANCH   2   3
ATOM      3  C   UNL     1       1.981   0.614  -0.037  1.00  0.00     0.000 C 
BRANCH   3   4
ATOM      4  C   UNL     1       3.272  -0.207  -0.080  1.00  0.00     0.000 C 
BRANCH   4   5
ATOM      5  C   UNL     1       4.539   0.649   0.026  1.00  0.00     0.000 C 
BRANCH   5   6
ATOM      6  C   UNL     1       5.832  -0.173   0.010  1.00  0.00     0.008 C 
BRANCH   6   7
ATOM      7  C   UNL     1       7.080   0.707   0.039  1.00  0.00     0.072 C 
BRANCH   7   8
ATOM      8  C   UNL     1       8.378  -0.067   0.029  1.00  0.00     0.224 C 
ATOM      9  O   UNL     1       8.467  -1.289   0.064  1.00  0.00    -0.303 OA
ENDBRANCH   7   8
ENDBRANCH   6   7
ENDBRANCH   5   6
ENDBRANCH   4   5
ENDBRANCH   3   4
ENDBRANCH   2   3
ENDBRANCH   1   2
BRANCH   1  10
ATOM     10  C   UNL     1      -1.812  -0.337  -0.063  1.00  0.00    -0.000 C 
BRANCH  10  11
ATOM     11  C   UNL     1      -3.104   0.480  -0.004  1.00  0.00    -0.000 C 
BRANCH  11  12
ATOM     12  C   UNL     1      -4.370  -0.383   0.009  1.00  0.00    -0.000 C 
BRANCH  12  13
ATOM     13  C   UNL     1      -5.697   0.383   0.047  1.00  0.00    -0.000 C 
BRANCH  13  14
ATOM     14  C   UNL     1      -6.962  -0.478  -0.011  1.00  0.00    -0.000 C 
BRANCH  14  15
ATOM     15  C   UNL     1      -8.254   0.335   0.080  1.00  0.00    -0.003 C 
ATOM     16  C   UNL     1      -9.480  -0.563   0.012  1.00  0.00     0.004 C 
ENDBRANCH  14  15
ENDBRANCH  13  14
ENDBRANCH  12  13
ENDBRANCH  11  12
ENDBRANCH  10  11
ENDBRANCH   1  10
TORSDOF 13
