REMARK SMILES CCCCCCCCCCCCC(=O)O
REMARK SMILES IDX 8 1 9 2 10 3 11 4 12 5 13 6 14 7 15 8 7 10 6 11 5 12 4 13
REMARK SMILES IDX 3 14 2 15 1 16
REMARK H PARENT 15 9
ROOT
ATOM      1  C   UNL     1      -0.159   0.528  -0.061  1.00  0.00     0.000 C 
ENDROOT
BRANCH   1   2
ATOM      2  C   UNL     1      -1.469  -0.265  -0.082  1.00  0.00     0.000 C 
BRANCH   2   3
ATOM      3  C   UNL     1      -2.717   0.620  -0.048  1.00  0.00     0.001 C 
BRANCH   3   4
ATOM      4  C   UNL     1      -3.994  -0.228   0.002  1.00  0.00     0.012 C 
BRANCH   4   5
ATOM      5  C   UNL     1      -5.262   0.625   0.011  1.00  0.00     0.122 C 
BRANCH   5   6
ATOM      6  C   UNL     1      -6.528  -0.195   0.050  1.00  0.00     0.303 C 
ATOM      7  O   UNL     1      -6.600  -1.414   0.032  1.00  0.00    -0.252 OA
BRANCH   6   8
ATOM      8  O   UNL     1      -7.610   0.622   0.141  1.00  0.00    -0.481 OA
ATOM      9  H   UNL     1      -8.448   0.115   0.182  1.00  0.00     0.296 HD
ENDBRANCH   6   8
ENDBRANCH   5   6
ENDBRANCH   4   5
ENDBRANCH   3   4
ENDBRANCH   2   3
ENDBRANCH   1   2
BRANCH   1  10
ATOM     10  C   UNL     1       1.089  -0.356  -0.121  1.00  0.00     0.000 C 
BRANCH  10  11
ATOM     11  C   UNL     1       2.366   0.486  -0.074  1.00  0.00    -0.000 C 
BRANCH  11  12
ATOM     12  C   UNL     1       3.616  -0.397  -0.096  1.00  0.00    -0.000 C 
BRANCH  12  13
ATOM     13  C   UNL     1       4.891   0.445  -0.015  1.00  0.00    -0.000 C 
BRANCH  13  14
ATOM     14  C   UNL     1       6.174  -0.391  -0.002  1.00  0.00    -0.000 C 
BRANCH  14  15
ATOM     15  C   UNL     1       7.481   0.399   0.100  1.00  0.00    -0.003 C 
ATOM     16  C   UNL     1       8.720  -0.480   0.163  1.00  0.00     0.004 C 
ENDBRANCH  14  15
ENDBRANCH  13  14
ENDBRANCH  12  13
ENDBRANCH  11  12
ENDBRANCH  10  11
ENDBRANCH   1  10
TORSDOF 12
