REMARK SMILES O=C(O)CCCN1C(=O)c2cccc3cccc(c23)C1=O
REMARK SMILES IDX 4 1 5 2 6 3 7 4 12 5 13 6 11 7 14 8 10 9 19 10 15 11 8 12
REMARK SMILES IDX 18 13 16 14 9 15 20 16 17 17 21 18 2 19 1 20 3 21
REMARK H PARENT 3 22
ROOT
ATOM      1  C   UNL     1       3.288   0.141   0.949  1.00  0.00     0.124 C 
ENDROOT
BRANCH   1   2
ATOM      2  C   UNL     1       2.962  -1.289   0.516  1.00  0.00     0.034 C 
BRANCH   2   3
ATOM      3  C   UNL     1       2.074  -1.390  -0.733  1.00  0.00     0.130 C 
BRANCH   3   4
ATOM      4  N   UNL     1       0.718  -0.885  -0.519  1.00  0.00    -0.274 N 
ATOM      5  C   UNL     1      -3.815  -1.565   1.134  1.00  0.00     0.001 A 
ATOM      6  C   UNL     1      -4.160  -0.284   0.705  1.00  0.00     0.009 A 
ATOM      7  C   UNL     1      -2.519  -2.035   0.943  1.00  0.00     0.014 A 
ATOM      8  C   UNL     1      -3.214   0.543   0.080  1.00  0.00    -0.017 A 
ATOM      9  C   UNL     1      -1.563  -1.221   0.319  1.00  0.00     0.049 A 
ATOM     10  C   UNL     1      -1.895   0.067  -0.116  1.00  0.00     0.007 A 
ATOM     11  C   UNL     1      -3.552   1.835  -0.353  1.00  0.00     0.009 A 
ATOM     12  C   UNL     1      -0.189  -1.732   0.120  1.00  0.00     0.261 C 
ATOM     13  C   UNL     1      -0.955   0.895  -0.738  1.00  0.00     0.049 A 
ATOM     14  C   UNL     1      -2.604   2.651  -0.972  1.00  0.00     0.001 A 
ATOM     15  O   UNL     1       0.095  -2.858   0.522  1.00  0.00    -0.269 OA
ATOM     16  C   UNL     1       0.428   0.411  -0.946  1.00  0.00     0.261 C 
ATOM     17  C   UNL     1      -1.307   2.183  -1.164  1.00  0.00     0.014 A 
ATOM     18  O   UNL     1       1.252   1.161  -1.463  1.00  0.00    -0.269 OA
ENDBRANCH   3   4
ENDBRANCH   2   3
ENDBRANCH   1   2
BRANCH   1  19
ATOM     19  C   UNL     1       4.145   0.867  -0.052  1.00  0.00     0.303 C 
ATOM     20  O   UNL     1       4.793   0.374  -0.960  1.00  0.00    -0.252 OA
BRANCH  19  21
ATOM     21  O   UNL     1       4.178   2.193   0.180  1.00  0.00    -0.481 OA
ATOM     22  H   UNL     1       4.717   2.546  -0.559  1.00  0.00     0.296 HD
ENDBRANCH  19  21
ENDBRANCH   1  19
TORSDOF 5
