REMARK SMILES CCCCCCCCCCCCCCCCCC(=O)O
REMARK SMILES IDX 10 1 9 2 8 3 7 4 6 5 5 6 4 7 3 8 2 9 1 10 11 11 12 12 13 13
REMARK SMILES IDX 14 14 15 15 16 16 17 17 18 18 19 19 20 20
REMARK H PARENT 20 21
ROOT
ATOM      1  C   UNL     1       0.197  -0.054  -0.190  1.00  0.00     0.000 C 
ENDROOT
BRANCH   1   2
ATOM      2  C   UNL     1      -1.133   0.613   0.167  1.00  0.00     0.000 C 
BRANCH   2   3
ATOM      3  C   UNL     1      -2.051  -0.274   1.014  1.00  0.00    -0.000 C 
BRANCH   3   4
ATOM      4  C   UNL     1      -2.477  -1.597   0.369  1.00  0.00    -0.000 C 
BRANCH   4   5
ATOM      5  C   UNL     1      -3.178  -1.478  -0.988  1.00  0.00    -0.000 C 
BRANCH   5   6
ATOM      6  C   UNL     1      -4.440  -0.609  -1.007  1.00  0.00    -0.000 C 
BRANCH   6   7
ATOM      7  C   UNL     1      -5.541  -1.122  -0.076  1.00  0.00    -0.000 C 
BRANCH   7   8
ATOM      8  C   UNL     1      -6.876  -0.390  -0.256  1.00  0.00    -0.000 C 
BRANCH   8   9
ATOM      9  C   UNL     1      -6.846   1.118   0.008  1.00  0.00    -0.003 C 
ATOM     10  C   UNL     1      -6.422   1.480   1.422  1.00  0.00     0.004 C 
ENDBRANCH   8   9
ENDBRANCH   7   8
ENDBRANCH   6   7
ENDBRANCH   5   6
ENDBRANCH   4   5
ENDBRANCH   3   4
ENDBRANCH   2   3
ENDBRANCH   1   2
BRANCH   1  11
ATOM     11  C   UNL     1       1.118   0.916  -0.935  1.00  0.00     0.000 C 
BRANCH  11  12
ATOM     12  C   UNL     1       2.416   0.268  -1.425  1.00  0.00     0.000 C 
BRANCH  12  13
ATOM     13  C   UNL     1       3.334  -0.189  -0.288  1.00  0.00     0.000 C 
BRANCH  13  14
ATOM     14  C   UNL     1       4.665  -0.714  -0.832  1.00  0.00     0.000 C 
BRANCH  14  15
ATOM     15  C   UNL     1       5.580  -1.296   0.250  1.00  0.00     0.001 C 
BRANCH  15  16
ATOM     16  C   UNL     1       5.980  -0.338   1.379  1.00  0.00     0.012 C 
BRANCH  16  17
ATOM     17  C   UNL     1       6.678   0.944   0.925  1.00  0.00     0.122 C 
BRANCH  17  18
ATOM     18  C   UNL     1       8.025   0.690   0.302  1.00  0.00     0.303 C 
ATOM     19  O   UNL     1       8.731  -0.294   0.436  1.00  0.00    -0.252 OA
BRANCH  18  20
ATOM     20  O   UNL     1       8.440   1.733  -0.444  1.00  0.00    -0.481 OA
ATOM     21  H   UNL     1       9.321   1.454  -0.770  1.00  0.00     0.296 HD
ENDBRANCH  18  20
ENDBRANCH  17  18
ENDBRANCH  16  17
ENDBRANCH  15  16
ENDBRANCH  14  15
ENDBRANCH  13  14
ENDBRANCH  12  13
ENDBRANCH  11  12
ENDBRANCH   1  11
TORSDOF 17
