REMARK SMILES CCCCCCCCCCCCCC(=O)O
REMARK SMILES IDX 8 1 7 2 6 3 5 4 4 5 3 6 2 7 1 8 9 9 10 10 11 11 12 12 13 13
REMARK SMILES IDX 14 14 15 15 16 16
REMARK H PARENT 16 17
ROOT
ATOM      1  C   UNL     1       0.181   0.913   0.762  1.00  0.00     0.000 C 
ENDROOT
BRANCH   1   2
ATOM      2  C   UNL     1      -0.702   0.164  -0.240  1.00  0.00     0.000 C 
BRANCH   2   3
ATOM      3  C   UNL     1      -1.977   0.953  -0.549  1.00  0.00    -0.000 C 
BRANCH   3   4
ATOM      4  C   UNL     1      -2.844   0.309  -1.634  1.00  0.00    -0.000 C 
BRANCH   4   5
ATOM      5  C   UNL     1      -3.358  -1.098  -1.326  1.00  0.00    -0.000 C 
BRANCH   5   6
ATOM      6  C   UNL     1      -4.184  -1.263  -0.045  1.00  0.00    -0.000 C 
BRANCH   6   7
ATOM      7  C   UNL     1      -5.557  -0.583  -0.070  1.00  0.00    -0.003 C 
ATOM      8  C   UNL     1      -5.557   0.830   0.492  1.00  0.00     0.004 C 
ENDBRANCH   6   7
ENDBRANCH   5   6
ENDBRANCH   4   5
ENDBRANCH   3   4
ENDBRANCH   2   3
ENDBRANCH   1   2
BRANCH   1   9
ATOM      9  C   UNL     1       1.413   0.117   1.202  1.00  0.00     0.000 C 
BRANCH   9  10
ATOM     10  C   UNL     1       2.411  -0.138   0.068  1.00  0.00     0.000 C 
BRANCH  10  11
ATOM     11  C   UNL     1       3.675  -0.826   0.590  1.00  0.00     0.001 C 
BRANCH  11  12
ATOM     12  C   UNL     1       4.653  -1.234  -0.518  1.00  0.00     0.012 C 
BRANCH  12  13
ATOM     13  C   UNL     1       5.240  -0.074  -1.322  1.00  0.00     0.122 C 
BRANCH  13  14
ATOM     14  C   UNL     1       6.139   0.813  -0.502  1.00  0.00     0.303 C 
ATOM     15  O   UNL     1       6.694   0.540   0.548  1.00  0.00    -0.252 OA
BRANCH  14  16
ATOM     16  O   UNL     1       6.328   2.014  -1.083  1.00  0.00    -0.481 OA
ATOM     17  H   UNL     1       6.936   2.480  -0.471  1.00  0.00     0.296 HD
ENDBRANCH  14  16
ENDBRANCH  13  14
ENDBRANCH  12  13
ENDBRANCH  11  12
ENDBRANCH  10  11
ENDBRANCH   9  10
ENDBRANCH   1   9
TORSDOF 13
