REMARK SMILES CCCCC/C=C\C/C=C\C/C=C\CCCCC(=O)O
REMARK SMILES IDX 11 1 10 2 9 3 8 4 7 5 6 6 5 7 4 8 3 9 2 10 1 11 12 12 13 13
REMARK SMILES IDX 14 14 15 15 16 16 17 17 18 18 19 19 20 20
REMARK H PARENT 20 21
ROOT
ATOM      1  C   UNL     1      -1.042   2.644  -1.602  1.00  0.00     0.054 C 
ENDROOT
BRANCH   1   2
ATOM      2  C   UNL     1       0.456   2.597  -1.692  1.00  0.00    -0.027 C 
ATOM      3  C   UNL     1       1.322   2.111  -0.786  1.00  0.00    -0.027 C 
BRANCH   3   4
ATOM      4  C   UNL     1       1.014   1.490   0.546  1.00  0.00     0.054 C 
BRANCH   4   5
ATOM      5  C   UNL     1       1.313   0.018   0.530  1.00  0.00    -0.027 C 
ATOM      6  C   UNL     1       2.204  -0.642   1.288  1.00  0.00    -0.031 C 
BRANCH   6   7
ATOM      7  C   UNL     1       3.085  -0.059   2.354  1.00  0.00     0.027 C 
BRANCH   7   8
ATOM      8  C   UNL     1       4.402   0.538   1.845  1.00  0.00     0.004 C 
BRANCH   8   9
ATOM      9  C   UNL     1       5.494  -0.479   1.490  1.00  0.00     0.000 C 
BRANCH   9  10
ATOM     10  C   UNL     1       5.296  -1.291   0.209  1.00  0.00    -0.003 C 
ATOM     11  C   UNL     1       5.165  -0.439  -1.044  1.00  0.00     0.004 C 
ENDBRANCH   9  10
ENDBRANCH   8   9
ENDBRANCH   7   8
ENDBRANCH   6   7
ENDBRANCH   4   5
ENDBRANCH   3   4
ENDBRANCH   1   2
BRANCH   1  12
ATOM     12  C   UNL     1      -1.674   1.743  -2.625  1.00  0.00    -0.027 C 
ATOM     13  C   UNL     1      -2.334   0.593  -2.408  1.00  0.00    -0.031 C 
BRANCH  13  14
ATOM     14  C   UNL     1      -2.557  -0.097  -1.093  1.00  0.00     0.027 C 
BRANCH  14  15
ATOM     15  C   UNL     1      -4.027  -0.032  -0.675  1.00  0.00     0.005 C 
BRANCH  15  16
ATOM     16  C   UNL     1      -4.254  -0.744   0.662  1.00  0.00     0.012 C 
BRANCH  16  17
ATOM     17  C   UNL     1      -5.712  -0.680   1.119  1.00  0.00     0.122 C 
BRANCH  17  18
ATOM     18  C   UNL     1      -6.618  -1.573   0.314  1.00  0.00     0.303 C 
ATOM     19  O   UNL     1      -6.296  -2.454  -0.464  1.00  0.00    -0.252 OA
BRANCH  18  20
ATOM     20  O   UNL     1      -7.919  -1.321   0.561  1.00  0.00    -0.481 OA
ATOM     21  H   UNL     1      -8.396  -1.966  -0.002  1.00  0.00     0.296 HD
ENDBRANCH  18  20
ENDBRANCH  17  18
ENDBRANCH  16  17
ENDBRANCH  15  16
ENDBRANCH  14  15
ENDBRANCH  13  14
ENDBRANCH   1  12
TORSDOF 14
