REMARK SMILES CCCCCCCCCCCCC(=O)OC
REMARK SMILES IDX 8 1 7 2 6 3 5 4 4 5 3 6 2 7 1 8 9 9 10 10 11 11 12 12 13 13
REMARK SMILES IDX 14 14 15 15 16 16
REMARK H PARENT
ROOT
ATOM      1  C   UNL     1       0.723  -0.110  -0.036  1.00  0.00     0.000 C 
ENDROOT
BRANCH   1   2
ATOM      2  C   UNL     1      -0.798  -0.265  -0.122  1.00  0.00     0.000 C 
BRANCH   2   3
ATOM      3  C   UNL     1      -1.506   0.669   0.862  1.00  0.00    -0.000 C 
BRANCH   3   4
ATOM      4  C   UNL     1      -3.026   0.477   0.897  1.00  0.00    -0.000 C 
BRANCH   4   5
ATOM      5  C   UNL     1      -3.713   0.851  -0.419  1.00  0.00    -0.000 C 
BRANCH   5   6
ATOM      6  C   UNL     1      -5.242   0.876  -0.317  1.00  0.00    -0.000 C 
BRANCH   6   7
ATOM      7  C   UNL     1      -5.853  -0.498  -0.040  1.00  0.00    -0.003 C 
ATOM      8  C   UNL     1      -7.373  -0.442  -0.059  1.00  0.00     0.004 C 
ENDBRANCH   6   7
ENDBRANCH   5   6
ENDBRANCH   4   5
ENDBRANCH   3   4
ENDBRANCH   2   3
ENDBRANCH   1   2
BRANCH   1   9
ATOM      9  C   UNL     1       1.431  -1.039  -1.026  1.00  0.00     0.000 C 
BRANCH   9  10
ATOM     10  C   UNL     1       2.957  -1.010  -0.902  1.00  0.00     0.001 C 
BRANCH  10  11
ATOM     11  C   UNL     1       3.573   0.335  -1.302  1.00  0.00     0.012 C 
BRANCH  11  12
ATOM     12  C   UNL     1       5.102   0.299  -1.297  1.00  0.00     0.123 C 
BRANCH  12  13
ATOM     13  C   UNL     1       5.690   0.247   0.096  1.00  0.00     0.305 C 
ATOM     14  O   UNL     1       5.089   0.497   1.131  1.00  0.00    -0.252 OA
BRANCH  13  15
ATOM     15  O   UNL     1       7.008  -0.094   0.018  1.00  0.00    -0.469 OA
ATOM     16  C   UNL     1       7.665  -0.157   1.284  1.00  0.00     0.282 C 
ENDBRANCH  13  15
ENDBRANCH  12  13
ENDBRANCH  11  12
ENDBRANCH  10  11
ENDBRANCH   9  10
ENDBRANCH   1   9
TORSDOF 12
