REMARK SMILES CCCCCCCCCCCCCC(=O)OC
REMARK SMILES IDX 8 1 7 2 6 3 5 4 4 5 3 6 2 7 1 8 9 9 10 10 11 11 12 12 13 13
REMARK SMILES IDX 14 14 15 15 16 16 17 17
REMARK H PARENT
ROOT
ATOM      1  C   UNL     1      -0.486   0.697   1.188  1.00  0.00     0.000 C 
ENDROOT
BRANCH   1   2
ATOM      2  C   UNL     1      -0.938   1.218  -0.179  1.00  0.00     0.000 C 
BRANCH   2   3
ATOM      3  C   UNL     1      -2.326   0.713  -0.592  1.00  0.00    -0.000 C 
BRANCH   3   4
ATOM      4  C   UNL     1      -3.455   1.246   0.294  1.00  0.00    -0.000 C 
BRANCH   4   5
ATOM      5  C   UNL     1      -4.852   0.935  -0.253  1.00  0.00    -0.000 C 
BRANCH   5   6
ATOM      6  C   UNL     1      -5.173  -0.560  -0.283  1.00  0.00    -0.000 C 
BRANCH   6   7
ATOM      7  C   UNL     1      -6.615  -0.808  -0.730  1.00  0.00    -0.003 C 
ATOM      8  C   UNL     1      -6.940  -2.292  -0.765  1.00  0.00     0.004 C 
ENDBRANCH   6   7
ENDBRANCH   5   6
ENDBRANCH   4   5
ENDBRANCH   3   4
ENDBRANCH   2   3
ENDBRANCH   1   2
BRANCH   1   9
ATOM      9  C   UNL     1       0.900   1.202   1.603  1.00  0.00     0.000 C 
BRANCH   9  10
ATOM     10  C   UNL     1       2.035   0.658   0.730  1.00  0.00     0.000 C 
BRANCH  10  11
ATOM     11  C   UNL     1       3.400   1.094   1.268  1.00  0.00     0.001 C 
BRANCH  11  12
ATOM     12  C   UNL     1       4.568   0.674   0.372  1.00  0.00     0.012 C 
BRANCH  12  13
ATOM     13  C   UNL     1       4.750  -0.837   0.283  1.00  0.00     0.123 C 
BRANCH  13  14
ATOM     14  C   UNL     1       5.990  -1.171  -0.505  1.00  0.00     0.305 C 
ATOM     15  O   UNL     1       6.005  -1.367  -1.712  1.00  0.00    -0.252 OA
BRANCH  14  16
ATOM     16  O   UNL     1       7.080  -1.193   0.311  1.00  0.00    -0.469 OA
ATOM     17  C   UNL     1       8.303  -1.484  -0.365  1.00  0.00     0.282 C 
ENDBRANCH  14  16
ENDBRANCH  13  14
ENDBRANCH  12  13
ENDBRANCH  11  12
ENDBRANCH  10  11
ENDBRANCH   9  10
ENDBRANCH   1   9
TORSDOF 13
