REMARK SMILES CCCCCC/C=C\C=C\CCCCCCCC(=O)OC
REMARK SMILES IDX 11 1 10 2 9 3 8 4 7 5 6 6 5 7 4 8 3 9 2 10 1 11 12 12 13 13
REMARK SMILES IDX 14 14 15 15 16 16 17 17 18 18 19 19 20 20 21 21
REMARK H PARENT
ROOT
ATOM      1  C   UNL     1       0.916  -1.626  -0.839  1.00  0.00     0.027 C 
ENDROOT
BRANCH   1   2
ATOM      2  C   UNL     1      -0.290  -2.097  -0.074  1.00  0.00    -0.027 C 
ATOM      3  C   UNL     1      -1.554  -1.890  -0.475  1.00  0.00    -0.005 C 
BRANCH   3   4
ATOM      4  C   UNL     1      -2.696  -2.352   0.278  1.00  0.00    -0.005 C 
ATOM      5  C   UNL     1      -3.986  -2.200  -0.062  1.00  0.00    -0.027 C 
BRANCH   5   6
ATOM      6  C   UNL     1      -4.549  -1.562  -1.302  1.00  0.00     0.027 C 
BRANCH   6   7
ATOM      7  C   UNL     1      -5.043  -0.130  -1.077  1.00  0.00     0.004 C 
BRANCH   7   8
ATOM      8  C   UNL     1      -6.238  -0.042  -0.121  1.00  0.00     0.000 C 
BRANCH   8   9
ATOM      9  C   UNL     1      -6.740   1.399   0.003  1.00  0.00    -0.000 C 
BRANCH   9  10
ATOM     10  C   UNL     1      -7.997   1.532   0.866  1.00  0.00    -0.003 C 
ATOM     11  C   UNL     1      -7.770   1.182   2.328  1.00  0.00     0.004 C 
ENDBRANCH   9  10
ENDBRANCH   8   9
ENDBRANCH   7   8
ENDBRANCH   6   7
ENDBRANCH   5   6
ENDBRANCH   3   4
ENDBRANCH   1   2
BRANCH   1  12
ATOM     12  C   UNL     1       1.729  -0.621  -0.019  1.00  0.00     0.004 C 
BRANCH  12  13
ATOM     13  C   UNL     1       2.912  -0.023  -0.789  1.00  0.00     0.000 C 
BRANCH  13  14
ATOM     14  C   UNL     1       4.007  -1.044  -1.106  1.00  0.00     0.000 C 
BRANCH  14  15
ATOM     15  C   UNL     1       5.188  -0.449  -1.882  1.00  0.00     0.001 C 
BRANCH  15  16
ATOM     16  C   UNL     1       5.949   0.680  -1.183  1.00  0.00     0.012 C 
BRANCH  16  17
ATOM     17  C   UNL     1       6.541   0.271   0.166  1.00  0.00     0.123 C 
BRANCH  17  18
ATOM     18  C   UNL     1       7.399   1.365   0.758  1.00  0.00     0.305 C 
ATOM     19  O   UNL     1       7.556   2.482   0.286  1.00  0.00    -0.252 OA
BRANCH  18  20
ATOM     20  O   UNL     1       7.969   0.916   1.913  1.00  0.00    -0.469 OA
ATOM     21  C   UNL     1       8.801   1.879   2.562  1.00  0.00     0.282 C 
ENDBRANCH  18  20
ENDBRANCH  17  18
ENDBRANCH  16  17
ENDBRANCH  15  16
ENDBRANCH  14  15
ENDBRANCH  13  14
ENDBRANCH  12  13
ENDBRANCH   1  12
TORSDOF 15
