REMARK SMILES CCCCCCCCCCCCCCCCCCCCC(=O)OC
REMARK SMILES IDX 12 1 11 2 10 3 9 4 8 5 7 6 6 7 5 8 4 9 3 10 2 11 1 12 13 13
REMARK SMILES IDX 14 14 15 15 16 16 17 17 18 18 19 19 20 20 21 21 22 22 23 23
REMARK SMILES IDX 24 24
REMARK H PARENT
ROOT
ATOM      1  C   UNL     1       1.879  -1.366   1.474  1.00  0.00     0.000 C 
ENDROOT
BRANCH   1   2
ATOM      2  C   UNL     1       0.724  -0.484   1.955  1.00  0.00     0.000 C 
BRANCH   2   3
ATOM      3  C   UNL     1      -0.263  -0.114   0.842  1.00  0.00     0.000 C 
BRANCH   3   4
ATOM      4  C   UNL     1      -1.042  -1.314   0.296  1.00  0.00    -0.000 C 
BRANCH   4   5
ATOM      5  C   UNL     1      -2.017  -0.944  -0.827  1.00  0.00    -0.000 C 
BRANCH   5   6
ATOM      6  C   UNL     1      -3.177  -0.060  -0.362  1.00  0.00    -0.000 C 
BRANCH   6   7
ATOM      7  C   UNL     1      -4.183   0.169  -1.495  1.00  0.00    -0.000 C 
BRANCH   7   8
ATOM      8  C   UNL     1      -5.301   1.148  -1.124  1.00  0.00    -0.000 C 
BRANCH   8   9
ATOM      9  C   UNL     1      -6.246   0.608  -0.046  1.00  0.00    -0.000 C 
BRANCH   9  10
ATOM     10  C   UNL     1      -7.414   1.556   0.253  1.00  0.00    -0.000 C 
BRANCH  10  11
ATOM     11  C   UNL     1      -7.198   2.475   1.459  1.00  0.00    -0.003 C 
ATOM     12  C   UNL     1      -6.054   3.462   1.302  1.00  0.00     0.004 C 
ENDBRANCH  10  11
ENDBRANCH   9  10
ENDBRANCH   8   9
ENDBRANCH   7   8
ENDBRANCH   6   7
ENDBRANCH   5   6
ENDBRANCH   4   5
ENDBRANCH   3   4
ENDBRANCH   2   3
ENDBRANCH   1   2
BRANCH   1  13
ATOM     13  C   UNL     1       2.923  -1.560   2.573  1.00  0.00     0.000 C 
BRANCH  13  14
ATOM     14  C   UNL     1       4.040  -2.546   2.209  1.00  0.00     0.000 C 
BRANCH  14  15
ATOM     15  C   UNL     1       4.888  -2.126   1.002  1.00  0.00     0.000 C 
BRANCH  15  16
ATOM     16  C   UNL     1       4.475  -2.841  -0.289  1.00  0.00     0.000 C 
BRANCH  16  17
ATOM     17  C   UNL     1       5.341  -2.462  -1.497  1.00  0.00     0.000 C 
BRANCH  17  18
ATOM     18  C   UNL     1       5.269  -0.993  -1.926  1.00  0.00     0.001 C 
BRANCH  18  19
ATOM     19  C   UNL     1       3.882  -0.575  -2.427  1.00  0.00     0.012 C 
BRANCH  19  20
ATOM     20  C   UNL     1       3.834   0.894  -2.840  1.00  0.00     0.123 C 
BRANCH  20  21
ATOM     21  C   UNL     1       3.944   1.820  -1.654  1.00  0.00     0.305 C 
ATOM     22  O   UNL     1       4.921   2.517  -1.415  1.00  0.00    -0.252 OA
BRANCH  21  23
ATOM     23  O   UNL     1       2.813   1.763  -0.897  1.00  0.00    -0.469 OA
ATOM     24  C   UNL     1       2.850   2.594   0.263  1.00  0.00     0.282 C 
ENDBRANCH  21  23
ENDBRANCH  20  21
ENDBRANCH  19  20
ENDBRANCH  18  19
ENDBRANCH  17  18
ENDBRANCH  16  17
ENDBRANCH  15  16
ENDBRANCH  14  15
ENDBRANCH  13  14
ENDBRANCH   1  13
TORSDOF 20
