REMARK SMILES CCCCCCCCCCCCCCC(=O)O
REMARK SMILES IDX 9 1 8 2 7 3 6 4 5 5 4 6 3 7 2 8 1 9 10 10 11 11 12 12 13 13
REMARK SMILES IDX 14 14 15 15 16 16 17 17
REMARK H PARENT 17 18
ROOT
ATOM      1  C   UNL     1      -0.633  -0.764  -0.935  1.00  0.00     0.000 C 
ENDROOT
BRANCH   1   2
ATOM      2  C   UNL     1       0.254   0.314  -1.562  1.00  0.00     0.000 C 
BRANCH   2   3
ATOM      3  C   UNL     1       1.642  -0.194  -1.963  1.00  0.00    -0.000 C 
BRANCH   3   4
ATOM      4  C   UNL     1       2.495  -0.781  -0.834  1.00  0.00    -0.000 C 
BRANCH   4   5
ATOM      5  C   UNL     1       2.788   0.217   0.290  1.00  0.00    -0.000 C 
BRANCH   5   6
ATOM      6  C   UNL     1       3.648  -0.369   1.414  1.00  0.00    -0.000 C 
BRANCH   6   7
ATOM      7  C   UNL     1       5.045  -0.849   1.007  1.00  0.00    -0.000 C 
BRANCH   7   8
ATOM      8  C   UNL     1       5.929   0.194   0.319  1.00  0.00    -0.003 C 
ATOM      9  C   UNL     1       6.205   1.417   1.179  1.00  0.00     0.004 C 
ENDBRANCH   7   8
ENDBRANCH   6   7
ENDBRANCH   5   6
ENDBRANCH   4   5
ENDBRANCH   3   4
ENDBRANCH   2   3
ENDBRANCH   1   2
BRANCH   1  10
ATOM     10  C   UNL     1      -2.043  -0.233  -0.665  1.00  0.00     0.000 C 
BRANCH  10  11
ATOM     11  C   UNL     1      -2.927  -1.308  -0.029  1.00  0.00     0.000 C 
BRANCH  11  12
ATOM     12  C   UNL     1      -4.382  -0.867   0.159  1.00  0.00     0.001 C 
BRANCH  12  13
ATOM     13  C   UNL     1      -4.546   0.262   1.182  1.00  0.00     0.012 C 
BRANCH  13  14
ATOM     14  C   UNL     1      -6.014   0.593   1.452  1.00  0.00     0.122 C 
BRANCH  14  15
ATOM     15  C   UNL     1      -6.674   1.311   0.304  1.00  0.00     0.303 C 
ATOM     16  O   UNL     1      -6.135   1.836  -0.655  1.00  0.00    -0.252 OA
BRANCH  15  17
ATOM     17  O   UNL     1      -8.013   1.359   0.445  1.00  0.00    -0.481 OA
ATOM     18  H   UNL     1      -8.316   1.856  -0.343  1.00  0.00     0.296 HD
ENDBRANCH  15  17
ENDBRANCH  14  15
ENDBRANCH  13  14
ENDBRANCH  12  13
ENDBRANCH  11  12
ENDBRANCH  10  11
ENDBRANCH   1  10
TORSDOF 14
