REMARK SMILES CC/C=C\C/C=C\C/C=C\C/C=C\C/C=C\CCCC(=O)O
REMARK SMILES IDX 12 1 13 2 11 3 10 4 9 5 8 6 7 7 6 8 5 9 4 10 3 11 2 12 1 13
REMARK SMILES IDX 14 14 15 15 16 16 17 17 18 18 19 19 20 20 21 21 22 22
REMARK H PARENT 22 23
ROOT
ATOM      1  C   UNL     1       1.305  -2.063   2.463  1.00  0.00    -0.027 C 
ATOM      2  C   UNL     1       2.439  -2.537   3.007  1.00  0.00    -0.027 C 
ENDROOT
BRANCH   1   3
ATOM      3  C   UNL     1       1.162  -1.215   1.233  1.00  0.00     0.054 C 
BRANCH   3   4
ATOM      4  C   UNL     1       0.444  -1.961   0.146  1.00  0.00    -0.027 C 
ATOM      5  C   UNL     1      -0.782  -1.718  -0.349  1.00  0.00    -0.027 C 
BRANCH   5   6
ATOM      6  C   UNL     1      -1.759  -0.664   0.089  1.00  0.00     0.054 C 
BRANCH   6   7
ATOM      7  C   UNL     1      -1.900   0.402  -0.958  1.00  0.00    -0.027 C 
ATOM      8  C   UNL     1      -2.981   0.696  -1.701  1.00  0.00    -0.027 C 
BRANCH   8   9
ATOM      9  C   UNL     1      -4.329   0.036  -1.678  1.00  0.00     0.054 C 
BRANCH   9  10
ATOM     10  C   UNL     1      -4.596  -0.681  -2.970  1.00  0.00    -0.027 C 
ATOM     11  C   UNL     1      -5.487  -0.360  -3.923  1.00  0.00    -0.031 C 
BRANCH  11  12
ATOM     12  C   UNL     1      -6.407   0.826  -3.949  1.00  0.00     0.023 C 
ATOM     13  C   UNL     1      -7.856   0.407  -3.753  1.00  0.00     0.008 C 
ENDBRANCH  11  12
ENDBRANCH   9  10
ENDBRANCH   8   9
ENDBRANCH   6   7
ENDBRANCH   5   6
ENDBRANCH   3   4
ENDBRANCH   1   3
BRANCH   2  14
ATOM     14  C   UNL     1       3.841  -2.370   2.494  1.00  0.00     0.054 C 
BRANCH  14  15
ATOM     15  C   UNL     1       4.625  -1.429   3.363  1.00  0.00    -0.027 C 
ATOM     16  C   UNL     1       5.068  -0.198   3.057  1.00  0.00    -0.031 C 
BRANCH  16  17
ATOM     17  C   UNL     1       4.886   0.544   1.764  1.00  0.00     0.027 C 
BRANCH  17  18
ATOM     18  C   UNL     1       3.896   1.700   1.932  1.00  0.00     0.016 C 
BRANCH  18  19
ATOM     19  C   UNL     1       3.615   2.420   0.618  1.00  0.00     0.123 C 
BRANCH  19  20
ATOM     20  C   UNL     1       4.819   3.158   0.109  1.00  0.00     0.303 C 
ATOM     21  O   UNL     1       5.536   2.815  -0.816  1.00  0.00    -0.252 OA
BRANCH  20  22
ATOM     22  O   UNL     1       5.073   4.286   0.798  1.00  0.00    -0.481 OA
ATOM     23  H   UNL     1       5.872   4.655   0.367  1.00  0.00     0.296 HD
ENDBRANCH  20  22
ENDBRANCH  19  20
ENDBRANCH  18  19
ENDBRANCH  17  18
ENDBRANCH  16  17
ENDBRANCH  14  15
ENDBRANCH   2  14
TORSDOF 14
