REMARK SMILES O=C(O)CCCCCCCCCCCCCCCCCF
REMARK SMILES IDX 11 1 10 2 9 3 8 4 7 5 6 6 5 7 4 8 2 9 1 10 3 11 12 13 13 14
REMARK SMILES IDX 14 15 15 16 16 17 17 18 18 19 19 20 20 21 21 22
REMARK H PARENT 3 12
ROOT
ATOM      1  C   UNL     1       0.363   1.369   1.549  1.00  0.00     0.000 C 
ENDROOT
BRANCH   1   2
ATOM      2  C   UNL     1       1.704   1.312   0.808  1.00  0.00     0.000 C 
BRANCH   2   3
ATOM      3  C   UNL     1       2.395  -0.049   0.938  1.00  0.00     0.000 C 
BRANCH   3   4
ATOM      4  C   UNL     1       3.648  -0.184   0.066  1.00  0.00     0.000 C 
BRANCH   4   5
ATOM      5  C   UNL     1       4.783   0.755   0.482  1.00  0.00     0.000 C 
BRANCH   5   6
ATOM      6  C   UNL     1       6.037   0.614  -0.389  1.00  0.00     0.001 C 
BRANCH   6   7
ATOM      7  C   UNL     1       6.755  -0.728  -0.209  1.00  0.00     0.012 C 
BRANCH   7   8
ATOM      8  C   UNL     1       8.073  -0.790  -0.982  1.00  0.00     0.122 C 
BRANCH   8   9
ATOM      9  C   UNL     1       7.875  -0.905  -2.470  1.00  0.00     0.303 C 
ATOM     10  O   UNL     1       6.848  -1.181  -3.066  1.00  0.00    -0.252 OA
BRANCH   9  11
ATOM     11  O   UNL     1       9.021  -0.690  -3.147  1.00  0.00    -0.481 OA
ATOM     12  H   UNL     1       8.766  -0.806  -4.086  1.00  0.00     0.296 HD
ENDBRANCH   9  11
ENDBRANCH   8   9
ENDBRANCH   7   8
ENDBRANCH   6   7
ENDBRANCH   5   6
ENDBRANCH   4   5
ENDBRANCH   3   4
ENDBRANCH   2   3
ENDBRANCH   1   2
BRANCH   1  13
ATOM     13  C   UNL     1      -0.870   1.185   0.655  1.00  0.00     0.000 C 
BRANCH  13  14
ATOM     14  C   UNL     1      -0.956  -0.187  -0.016  1.00  0.00     0.000 C 
BRANCH  14  15
ATOM     15  C   UNL     1      -2.219  -0.371  -0.864  1.00  0.00     0.000 C 
BRANCH  15  16
ATOM     16  C   UNL     1      -3.506  -0.443  -0.036  1.00  0.00     0.000 C 
BRANCH  16  17
ATOM     17  C   UNL     1      -4.716  -0.742  -0.925  1.00  0.00     0.000 C 
BRANCH  17  18
ATOM     18  C   UNL     1      -6.017  -0.942  -0.139  1.00  0.00     0.000 C 
BRANCH  18  19
ATOM     19  C   UNL     1      -6.514   0.333   0.548  1.00  0.00     0.003 C 
BRANCH  19  20
ATOM     20  C   UNL     1      -7.819   0.131   1.326  1.00  0.00     0.034 C 
BRANCH  20  21
ATOM     21  C   UNL     1      -9.021  -0.157   0.443  1.00  0.00     0.214 C 
ATOM     22  F   UNL     1      -9.194   0.872  -0.429  1.00  0.00    -0.251 F 
ENDBRANCH  20  21
ENDBRANCH  19  20
ENDBRANCH  18  19
ENDBRANCH  17  18
ENDBRANCH  16  17
ENDBRANCH  15  16
ENDBRANCH  14  15
ENDBRANCH  13  14
ENDBRANCH   1  13
TORSDOF 18
