REMARK SMILES CCCCCCCCCCCCCCC(=O)OC
REMARK SMILES IDX 9 1 8 2 7 3 6 4 5 5 4 6 3 7 2 8 1 9 10 10 11 11 12 12 13 13
REMARK SMILES IDX 14 14 15 15 16 16 17 17 18 18
REMARK H PARENT
ROOT
ATOM      1  C   UNL     1      -0.951  -1.017   0.505  1.00  0.00     0.000 C 
ENDROOT
BRANCH   1   2
ATOM      2  C   UNL     1       0.033  -1.773  -0.395  1.00  0.00     0.000 C 
BRANCH   2   3
ATOM      3  C   UNL     1       1.512  -1.454  -0.143  1.00  0.00    -0.000 C 
BRANCH   3   4
ATOM      4  C   UNL     1       2.067  -0.360  -1.059  1.00  0.00    -0.000 C 
BRANCH   4   5
ATOM      5  C   UNL     1       3.584  -0.177  -0.932  1.00  0.00    -0.000 C 
BRANCH   5   6
ATOM      6  C   UNL     1       4.017   0.359   0.435  1.00  0.00    -0.000 C 
BRANCH   6   7
ATOM      7  C   UNL     1       5.522   0.634   0.470  1.00  0.00    -0.000 C 
BRANCH   7   8
ATOM      8  C   UNL     1       5.959   1.166   1.835  1.00  0.00    -0.003 C 
ATOM      9  C   UNL     1       7.454   1.440   1.873  1.00  0.00     0.004 C 
ENDBRANCH   7   8
ENDBRANCH   6   7
ENDBRANCH   5   6
ENDBRANCH   4   5
ENDBRANCH   3   4
ENDBRANCH   2   3
ENDBRANCH   1   2
BRANCH   1  10
ATOM     10  C   UNL     1      -1.060   0.492   0.280  1.00  0.00     0.000 C 
BRANCH  10  11
ATOM     11  C   UNL     1      -1.469   0.924  -1.132  1.00  0.00     0.000 C 
BRANCH  11  12
ATOM     12  C   UNL     1      -2.792   0.348  -1.647  1.00  0.00     0.001 C 
BRANCH  12  13
ATOM     13  C   UNL     1      -3.999   0.736  -0.792  1.00  0.00     0.012 C 
BRANCH  13  14
ATOM     14  C   UNL     1      -5.298   0.230  -1.410  1.00  0.00     0.123 C 
BRANCH  14  15
ATOM     15  C   UNL     1      -6.479   0.636  -0.569  1.00  0.00     0.305 C 
ATOM     16  O   UNL     1      -7.173   1.620  -0.788  1.00  0.00    -0.252 OA
BRANCH  15  17
ATOM     17  O   UNL     1      -6.644  -0.230   0.469  1.00  0.00    -0.469 OA
ATOM     18  C   UNL     1      -7.737   0.096   1.327  1.00  0.00     0.282 C 
ENDBRANCH  15  17
ENDBRANCH  14  15
ENDBRANCH  13  14
ENDBRANCH  12  13
ENDBRANCH  11  12
ENDBRANCH  10  11
ENDBRANCH   1  10
TORSDOF 14
