REMARK SMILES CCCCCC/C=C\CCCCCCCCC(=O)OC
REMARK SMILES IDX 10 1 9 2 8 3 7 4 6 5 5 6 4 7 3 8 2 9 1 10 11 11 12 12 13 13
REMARK SMILES IDX 14 14 15 15 16 16 17 17 18 18 19 19 20 20
REMARK H PARENT
ROOT
ATOM      1  C   UNL     1      -0.193  -1.695  -0.405  1.00  0.00     0.004 C 
ENDROOT
BRANCH   1   2
ATOM      2  C   UNL     1       0.796  -0.530  -0.519  1.00  0.00     0.027 C 
BRANCH   2   3
ATOM      3  C   UNL     1       0.996   0.211   0.773  1.00  0.00    -0.031 C 
ATOM      4  C   UNL     1       2.028   0.092   1.623  1.00  0.00    -0.031 C 
BRANCH   4   5
ATOM      5  C   UNL     1       3.192  -0.852   1.510  1.00  0.00     0.027 C 
BRANCH   5   6
ATOM      6  C   UNL     1       4.478  -0.105   1.152  1.00  0.00     0.004 C 
BRANCH   6   7
ATOM      7  C   UNL     1       5.666  -1.066   1.054  1.00  0.00     0.000 C 
BRANCH   7   8
ATOM      8  C   UNL     1       7.002  -0.360   0.807  1.00  0.00    -0.000 C 
BRANCH   8   9
ATOM      9  C   UNL     1       7.084   0.326  -0.557  1.00  0.00    -0.003 C 
ATOM     10  C   UNL     1       8.466   0.912  -0.801  1.00  0.00     0.004 C 
ENDBRANCH   8   9
ENDBRANCH   7   8
ENDBRANCH   6   7
ENDBRANCH   5   6
ENDBRANCH   4   5
ENDBRANCH   2   3
ENDBRANCH   1   2
BRANCH   1  11
ATOM     11  C   UNL     1      -1.613  -1.320   0.038  1.00  0.00     0.000 C 
BRANCH  11  12
ATOM     12  C   UNL     1      -2.312  -0.357  -0.925  1.00  0.00     0.000 C 
BRANCH  12  13
ATOM     13  C   UNL     1      -3.799  -0.155  -0.610  1.00  0.00     0.000 C 
BRANCH  13  14
ATOM     14  C   UNL     1      -4.044   0.599   0.698  1.00  0.00     0.001 C 
BRANCH  14  15
ATOM     15  C   UNL     1      -5.525   0.731   1.075  1.00  0.00     0.012 C 
BRANCH  15  16
ATOM     16  C   UNL     1      -6.335   1.660   0.171  1.00  0.00     0.123 C 
BRANCH  16  17
ATOM     17  C   UNL     1      -6.817   1.022  -1.109  1.00  0.00     0.305 C 
ATOM     18  O   UNL     1      -6.620   1.493  -2.221  1.00  0.00    -0.252 OA
BRANCH  17  19
ATOM     19  O   UNL     1      -7.532  -0.108  -0.853  1.00  0.00    -0.469 OA
ATOM     20  C   UNL     1      -8.030  -0.757  -2.023  1.00  0.00     0.282 C 
ENDBRANCH  17  19
ENDBRANCH  16  17
ENDBRANCH  15  16
ENDBRANCH  14  15
ENDBRANCH  13  14
ENDBRANCH  12  13
ENDBRANCH  11  12
ENDBRANCH   1  11
TORSDOF 15
