REMARK SMILES CC/C=C\C/C=C\C/C=C\C/C=C\CCC(=O)O
REMARK SMILES IDX 9 1 10 2 8 3 7 4 6 5 5 6 4 7 3 8 2 9 1 10 11 11 12 12 13 13
REMARK SMILES IDX 14 14 15 15 16 16 17 17 18 18
REMARK H PARENT 18 19
ROOT
ATOM      1  C   UNL     1       1.310   0.447   3.232  1.00  0.00    -0.027 C 
ATOM      2  C   UNL     1       0.703   1.355   2.449  1.00  0.00    -0.027 C 
ENDROOT
BRANCH   1   3
ATOM      3  C   UNL     1       1.923  -0.861   2.818  1.00  0.00     0.054 C 
BRANCH   3   4
ATOM      4  C   UNL     1       1.077  -2.017   3.269  1.00  0.00    -0.027 C 
ATOM      5  C   UNL     1       0.528  -2.984   2.514  1.00  0.00    -0.027 C 
BRANCH   5   6
ATOM      6  C   UNL     1       0.641  -3.183   1.027  1.00  0.00     0.054 C 
BRANCH   6   7
ATOM      7  C   UNL     1      -0.661  -2.903   0.331  1.00  0.00    -0.027 C 
ATOM      8  C   UNL     1      -0.823  -2.559  -0.958  1.00  0.00    -0.031 C 
BRANCH   8   9
ATOM      9  C   UNL     1       0.248  -2.421  -2.001  1.00  0.00     0.023 C 
ATOM     10  C   UNL     1       0.311  -1.007  -2.555  1.00  0.00     0.008 C 
ENDBRANCH   8   9
ENDBRANCH   6   7
ENDBRANCH   5   6
ENDBRANCH   3   4
ENDBRANCH   1   3
BRANCH   2  11
ATOM     11  C   UNL     1       0.473   1.282   0.967  1.00  0.00     0.054 C 
BRANCH  11  12
ATOM     12  C   UNL     1      -0.992   1.148   0.660  1.00  0.00    -0.027 C 
ATOM     13  C   UNL     1      -1.792   2.026   0.035  1.00  0.00    -0.030 C 
BRANCH  13  14
ATOM     14  C   UNL     1      -1.426   3.389  -0.486  1.00  0.00     0.039 C 
BRANCH  14  15
ATOM     15  C   UNL     1      -1.489   3.462  -2.009  1.00  0.00     0.126 C 
BRANCH  15  16
ATOM     16  C   UNL     1      -0.318   2.778  -2.659  1.00  0.00     0.303 C 
ATOM     17  O   UNL     1       0.826   2.716  -2.244  1.00  0.00    -0.252 OA
BRANCH  16  18
ATOM     18  O   UNL     1      -0.638   2.248  -3.857  1.00  0.00    -0.481 OA
ATOM     19  H   UNL     1       0.204   1.857  -4.171  1.00  0.00     0.296 HD
ENDBRANCH  16  18
ENDBRANCH  15  16
ENDBRANCH  14  15
ENDBRANCH  13  14
ENDBRANCH  11  12
ENDBRANCH   2  11
TORSDOF 11
