REMARK SMILES CCCCC/C=C\C/C=C\CCCC/C=C\CC(=O)O
REMARK SMILES IDX 11 1 10 2 9 3 8 4 7 5 6 6 5 7 4 8 3 9 2 10 1 11 12 12 13 13
REMARK SMILES IDX 14 14 15 15 16 16 17 17 18 18 19 19 20 20
REMARK H PARENT 20 21
ROOT
ATOM      1  C   UNL     1      -1.708   2.285  -0.921  1.00  0.00     0.027 C 
ENDROOT
BRANCH   1   2
ATOM      2  C   UNL     1      -0.216   2.424  -1.054  1.00  0.00    -0.031 C 
ATOM      3  C   UNL     1       0.738   1.837  -0.313  1.00  0.00    -0.027 C 
BRANCH   3   4
ATOM      4  C   UNL     1       0.568   0.884   0.836  1.00  0.00     0.054 C 
BRANCH   4   5
ATOM      5  C   UNL     1       1.163  -0.456   0.507  1.00  0.00    -0.027 C 
ATOM      6  C   UNL     1       2.165  -1.082   1.147  1.00  0.00    -0.031 C 
BRANCH   6   7
ATOM      7  C   UNL     1       2.900  -0.595   2.362  1.00  0.00     0.027 C 
BRANCH   7   8
ATOM      8  C   UNL     1       4.072   0.348   2.070  1.00  0.00     0.004 C 
BRANCH   8   9
ATOM      9  C   UNL     1       5.353  -0.328   1.566  1.00  0.00     0.000 C 
BRANCH   9  10
ATOM     10  C   UNL     1       5.340  -0.859   0.131  1.00  0.00    -0.003 C 
ATOM     11  C   UNL     1       5.049   0.207  -0.915  1.00  0.00     0.004 C 
ENDBRANCH   9  10
ENDBRANCH   8   9
ENDBRANCH   7   8
ENDBRANCH   6   7
ENDBRANCH   4   5
ENDBRANCH   3   4
ENDBRANCH   1   2
BRANCH   1  12
ATOM     12  C   UNL     1      -2.367   1.732  -2.190  1.00  0.00     0.004 C 
BRANCH  12  13
ATOM     13  C   UNL     1      -2.037   0.269  -2.517  1.00  0.00     0.004 C 
BRANCH  13  14
ATOM     14  C   UNL     1      -2.997  -0.752  -1.894  1.00  0.00     0.027 C 
BRANCH  14  15
ATOM     15  C   UNL     1      -2.852  -0.907  -0.409  1.00  0.00    -0.031 C 
ATOM     16  C   UNL     1      -3.749  -0.607   0.545  1.00  0.00    -0.020 C 
BRANCH  16  17
ATOM     17  C   UNL     1      -5.115  -0.003   0.372  1.00  0.00     0.149 C 
BRANCH  17  18
ATOM     18  C   UNL     1      -6.205  -0.938   0.859  1.00  0.00     0.307 C 
ATOM     19  O   UNL     1      -6.086  -1.945   1.536  1.00  0.00    -0.252 OA
BRANCH  18  20
ATOM     20  O   UNL     1      -7.433  -0.513   0.491  1.00  0.00    -0.481 OA
ATOM     21  H   UNL     1      -8.034  -1.186   0.873  1.00  0.00     0.296 HD
ENDBRANCH  18  20
ENDBRANCH  17  18
ENDBRANCH  16  17
ENDBRANCH  14  15
ENDBRANCH  13  14
ENDBRANCH  12  13
ENDBRANCH   1  12
TORSDOF 14
