REMARK SMILES CC/C=C\C/C=C\C/C=C\C/C=C\C/C=C\CCCC(=O)OC
REMARK SMILES IDX 12 1 13 2 11 3 10 4 9 5 8 6 7 7 6 8 5 9 4 10 3 11 2 12 1 13
REMARK SMILES IDX 14 14 15 15 16 16 17 17 18 18 19 19 20 20 21 21 22 22 23 23
REMARK H PARENT
ROOT
ATOM      1  C   UNL     1       0.373   3.311   1.156  1.00  0.00    -0.027 C 
ATOM      2  C   UNL     1       1.074   4.052   0.280  1.00  0.00    -0.027 C 
ENDROOT
BRANCH   1   3
ATOM      3  C   UNL     1       0.364   1.816   1.291  1.00  0.00     0.054 C 
BRANCH   3   4
ATOM      4  C   UNL     1       1.149   1.381   2.495  1.00  0.00    -0.027 C 
ATOM      5  C   UNL     1       0.691   0.760   3.595  1.00  0.00    -0.027 C 
BRANCH   5   6
ATOM      6  C   UNL     1      -0.729   0.384   3.911  1.00  0.00     0.054 C 
BRANCH   6   7
ATOM      7  C   UNL     1      -0.927  -1.101   3.812  1.00  0.00    -0.027 C 
ATOM      8  C   UNL     1      -1.706  -1.773   2.947  1.00  0.00    -0.027 C 
BRANCH   8   9
ATOM      9  C   UNL     1      -2.579  -1.216   1.859  1.00  0.00     0.054 C 
BRANCH   9  10
ATOM     10  C   UNL     1      -2.046  -1.591   0.507  1.00  0.00    -0.027 C 
ATOM     11  C   UNL     1      -2.593  -2.410  -0.406  1.00  0.00    -0.031 C 
BRANCH  11  12
ATOM     12  C   UNL     1      -3.887  -3.163  -0.311  1.00  0.00     0.023 C 
ATOM     13  C   UNL     1      -3.648  -4.664  -0.259  1.00  0.00     0.008 C 
ENDBRANCH  11  12
ENDBRANCH   9  10
ENDBRANCH   8   9
ENDBRANCH   6   7
ENDBRANCH   5   6
ENDBRANCH   3   4
ENDBRANCH   1   3
BRANCH   2  14
ATOM     14  C   UNL     1       2.052   3.567  -0.751  1.00  0.00     0.054 C 
BRANCH  14  15
ATOM     15  C   UNL     1       1.620   3.948  -2.139  1.00  0.00    -0.027 C 
ATOM     16  C   UNL     1       1.212   3.123  -3.118  1.00  0.00    -0.031 C 
BRANCH  16  17
ATOM     17  C   UNL     1       1.026   1.637  -3.022  1.00  0.00     0.027 C 
BRANCH  17  18
ATOM     18  C   UNL     1       2.282   0.885  -3.467  1.00  0.00     0.016 C 
BRANCH  18  19
ATOM     19  C   UNL     1       2.075  -0.627  -3.509  1.00  0.00     0.123 C 
BRANCH  19  20
ATOM     20  C   UNL     1       1.718  -1.225  -2.171  1.00  0.00     0.305 C 
ATOM     21  O   UNL     1       0.713  -1.895  -1.975  1.00  0.00    -0.252 OA
BRANCH  20  22
ATOM     22  O   UNL     1       2.672  -0.949  -1.242  1.00  0.00    -0.469 OA
ATOM     23  C   UNL     1       2.410  -1.511   0.046  1.00  0.00     0.282 C 
ENDBRANCH  20  22
ENDBRANCH  19  20
ENDBRANCH  18  19
ENDBRANCH  17  18
ENDBRANCH  16  17
ENDBRANCH  14  15
ENDBRANCH   2  14
TORSDOF 14
