REMARK SMILES CCCCCCCCCCCCCCCCC(=O)O
REMARK SMILES IDX 10 1 9 2 8 3 7 4 6 5 5 6 4 7 3 8 2 9 1 10 11 11 12 12 13 13
REMARK SMILES IDX 14 14 15 15 16 16 17 17 18 18 19 19
REMARK H PARENT 19 20
ROOT
ATOM      1  C   UNL     1      -0.785   1.342  -1.465  1.00  0.00     0.000 C 
ENDROOT
BRANCH   1   2
ATOM      2  C   UNL     1       0.355   1.567  -0.469  1.00  0.00     0.000 C 
BRANCH   2   3
ATOM      3  C   UNL     1       1.442   2.513  -0.992  1.00  0.00    -0.000 C 
BRANCH   3   4
ATOM      4  C   UNL     1       2.175   2.055  -2.257  1.00  0.00    -0.000 C 
BRANCH   4   5
ATOM      5  C   UNL     1       2.825   0.669  -2.186  1.00  0.00    -0.000 C 
BRANCH   5   6
ATOM      6  C   UNL     1       3.886   0.551  -1.090  1.00  0.00    -0.000 C 
BRANCH   6   7
ATOM      7  C   UNL     1       4.569  -0.819  -1.129  1.00  0.00    -0.000 C 
BRANCH   7   8
ATOM      8  C   UNL     1       5.713  -0.958  -0.121  1.00  0.00    -0.000 C 
BRANCH   8   9
ATOM      9  C   UNL     1       5.248  -0.919   1.336  1.00  0.00    -0.003 C 
ATOM     10  C   UNL     1       6.402  -1.178   2.293  1.00  0.00     0.004 C 
ENDBRANCH   8   9
ENDBRANCH   7   8
ENDBRANCH   6   7
ENDBRANCH   5   6
ENDBRANCH   4   5
ENDBRANCH   3   4
ENDBRANCH   2   3
ENDBRANCH   1   2
BRANCH   1  11
ATOM     11  C   UNL     1      -1.867   0.387  -0.949  1.00  0.00     0.000 C 
BRANCH  11  12
ATOM     12  C   UNL     1      -2.683   0.962   0.213  1.00  0.00     0.000 C 
BRANCH  12  13
ATOM     13  C   UNL     1      -3.772   0.009   0.722  1.00  0.00     0.000 C 
BRANCH  13  14
ATOM     14  C   UNL     1      -4.938  -0.158  -0.254  1.00  0.00     0.001 C 
BRANCH  14  15
ATOM     15  C   UNL     1      -5.992  -1.175   0.201  1.00  0.00     0.012 C 
BRANCH  15  16
ATOM     16  C   UNL     1      -6.797  -0.754   1.430  1.00  0.00     0.122 C 
BRANCH  16  17
ATOM     17  C   UNL     1      -6.127  -1.057   2.742  1.00  0.00     0.303 C 
ATOM     18  O   UNL     1      -5.955  -0.269   3.657  1.00  0.00    -0.252 OA
BRANCH  17  19
ATOM     19  O   UNL     1      -5.758  -2.345   2.871  1.00  0.00    -0.481 OA
ATOM     20  H   UNL     1      -5.371  -2.391   3.771  1.00  0.00     0.296 HD
ENDBRANCH  17  19
ENDBRANCH  16  17
ENDBRANCH  15  16
ENDBRANCH  14  15
ENDBRANCH  13  14
ENDBRANCH  12  13
ENDBRANCH  11  12
ENDBRANCH   1  11
TORSDOF 16
