REMARK SMILES CCCCCC/C=C\CCCCCCCC(=O)O
REMARK SMILES IDX 10 1 9 2 8 3 7 4 6 5 5 6 4 7 3 8 2 9 1 10 11 11 12 12 13 13
REMARK SMILES IDX 14 14 15 15 16 16 17 17 18 18
REMARK H PARENT 18 19
ROOT
ATOM      1  C   UNL     1       1.049  -0.666  -0.732  1.00  0.00     0.004 C 
ENDROOT
BRANCH   1   2
ATOM      2  C   UNL     1       0.027  -1.756  -1.072  1.00  0.00     0.027 C 
BRANCH   2   3
ATOM      3  C   UNL     1      -0.792  -2.196   0.108  1.00  0.00    -0.031 C 
ATOM      4  C   UNL     1      -2.002  -1.741   0.472  1.00  0.00    -0.031 C 
BRANCH   4   5
ATOM      5  C   UNL     1      -2.811  -0.665  -0.198  1.00  0.00     0.027 C 
BRANCH   5   6
ATOM      6  C   UNL     1      -3.016   0.527   0.741  1.00  0.00     0.004 C 
BRANCH   6   7
ATOM      7  C   UNL     1      -3.781   1.683   0.094  1.00  0.00     0.000 C 
BRANCH   7   8
ATOM      8  C   UNL     1      -5.213   1.386  -0.365  1.00  0.00    -0.000 C 
BRANCH   8   9
ATOM      9  C   UNL     1      -6.198   1.068   0.764  1.00  0.00    -0.003 C 
ATOM     10  C   UNL     1      -6.368  -0.421   1.027  1.00  0.00     0.004 C 
ENDBRANCH   8   9
ENDBRANCH   7   8
ENDBRANCH   6   7
ENDBRANCH   5   6
ENDBRANCH   4   5
ENDBRANCH   2   3
ENDBRANCH   1   2
BRANCH   1  11
ATOM     11  C   UNL     1       2.145  -1.143   0.227  1.00  0.00     0.000 C 
BRANCH  11  12
ATOM     12  C   UNL     1       3.143  -0.043   0.608  1.00  0.00     0.000 C 
BRANCH  12  13
ATOM     13  C   UNL     1       4.027   0.407  -0.559  1.00  0.00     0.001 C 
BRANCH  13  14
ATOM     14  C   UNL     1       5.017   1.518  -0.182  1.00  0.00     0.012 C 
BRANCH  14  15
ATOM     15  C   UNL     1       6.088   1.117   0.833  1.00  0.00     0.122 C 
BRANCH  15  16
ATOM     16  C   UNL     1       7.053   0.093   0.296  1.00  0.00     0.303 C 
ATOM     17  O   UNL     1       7.270  -0.181  -0.871  1.00  0.00    -0.252 OA
BRANCH  16  18
ATOM     18  O   UNL     1       7.739  -0.519   1.281  1.00  0.00    -0.481 OA
ATOM     19  H   UNL     1       8.335  -1.135   0.807  1.00  0.00     0.296 HD
ENDBRANCH  16  18
ENDBRANCH  15  16
ENDBRANCH  14  15
ENDBRANCH  13  14
ENDBRANCH  12  13
ENDBRANCH  11  12
ENDBRANCH   1  11
TORSDOF 14
