REMARK SMILES CCC=CCC=CCC=CCCCCCCCC(=O)O
REMARK SMILES IDX 12 1 11 2 10 3 9 4 8 5 7 6 6 7 5 8 4 9 3 10 2 11 1 12 13 13
REMARK SMILES IDX 14 14 15 15 16 16 17 17 18 18 19 19 20 20
REMARK H PARENT 20 21
ROOT
ATOM      1  C   UNL     1      -2.299   1.047  -0.725  1.00  0.00     0.004 C 
ENDROOT
BRANCH   1   2
ATOM      2  C   UNL     1      -1.042   1.928  -0.727  1.00  0.00     0.027 C 
BRANCH   2   3
ATOM      3  C   UNL     1       0.278   1.301  -1.096  1.00  0.00    -0.031 C 
ATOM      4  C   UNL     1       0.489   0.082  -1.623  1.00  0.00    -0.027 C 
BRANCH   4   5
ATOM      5  C   UNL     1       1.807  -0.550  -1.993  1.00  0.00     0.054 C 
BRANCH   5   6
ATOM      6  C   UNL     1       3.003   0.354  -1.890  1.00  0.00    -0.027 C 
ATOM      7  C   UNL     1       4.014   0.171  -1.024  1.00  0.00    -0.027 C 
BRANCH   7   8
ATOM      8  C   UNL     1       5.212   1.070  -0.920  1.00  0.00     0.054 C 
BRANCH   8   9
ATOM      9  C   UNL     1       6.470   0.333  -1.266  1.00  0.00    -0.027 C 
ATOM     10  C   UNL     1       7.463  -0.134  -0.491  1.00  0.00    -0.031 C 
BRANCH  10  11
ATOM     11  C   UNL     1       7.700  -0.145   0.995  1.00  0.00     0.023 C 
ATOM     12  C   UNL     1       6.640   0.406   1.931  1.00  0.00     0.008 C 
ENDBRANCH  10  11
ENDBRANCH   8   9
ENDBRANCH   7   8
ENDBRANCH   5   6
ENDBRANCH   4   5
ENDBRANCH   2   3
ENDBRANCH   1   2
BRANCH   1  13
ATOM     13  C   UNL     1      -2.330   0.055   0.443  1.00  0.00     0.000 C 
BRANCH  13  14
ATOM     14  C   UNL     1      -3.519  -0.910   0.387  1.00  0.00     0.000 C 
BRANCH  14  15
ATOM     15  C   UNL     1      -4.875  -0.218   0.542  1.00  0.00     0.001 C 
BRANCH  15  16
ATOM     16  C   UNL     1      -6.014  -1.242   0.597  1.00  0.00     0.012 C 
BRANCH  16  17
ATOM     17  C   UNL     1      -7.388  -0.583   0.718  1.00  0.00     0.122 C 
BRANCH  17  18
ATOM     18  C   UNL     1      -7.639   0.007   2.080  1.00  0.00     0.303 C 
ATOM     19  O   UNL     1      -7.003  -0.181   3.102  1.00  0.00    -0.252 OA
BRANCH  18  20
ATOM     20  O   UNL     1      -8.728   0.801   2.089  1.00  0.00    -0.481 OA
ATOM     21  H   UNL     1      -8.791   1.105   3.019  1.00  0.00     0.296 HD
ENDBRANCH  18  20
ENDBRANCH  17  18
ENDBRANCH  16  17
ENDBRANCH  15  16
ENDBRANCH  14  15
ENDBRANCH  13  14
ENDBRANCH   1  13
TORSDOF 14
