REMARK SMILES CCCCC/C=C\C/C=C\CCCC/C=C\CC(=O)OC
REMARK SMILES IDX 11 1 10 2 9 3 8 4 7 5 6 6 5 7 4 8 3 9 2 10 1 11 12 12 13 13
REMARK SMILES IDX 14 14 15 15 16 16 17 17 18 18 19 19 20 20 21 21
REMARK H PARENT
ROOT
ATOM      1  C   UNL     1       0.765  -0.622  -0.813  1.00  0.00     0.027 C 
ENDROOT
BRANCH   1   2
ATOM      2  C   UNL     1       1.405   0.726  -0.991  1.00  0.00    -0.031 C 
ATOM      3  C   UNL     1       2.384   1.046  -1.854  1.00  0.00    -0.027 C 
BRANCH   3   4
ATOM      4  C   UNL     1       3.008   0.163  -2.890  1.00  0.00     0.054 C 
BRANCH   4   5
ATOM      5  C   UNL     1       4.407  -0.329  -2.627  1.00  0.00    -0.027 C 
ATOM      6  C   UNL     1       5.233  -0.267  -1.568  1.00  0.00    -0.031 C 
BRANCH   6   7
ATOM      7  C   UNL     1       5.044   0.373  -0.223  1.00  0.00     0.027 C 
BRANCH   7   8
ATOM      8  C   UNL     1       4.620  -0.657   0.826  1.00  0.00     0.004 C 
BRANCH   8   9
ATOM      9  C   UNL     1       4.507  -0.074   2.237  1.00  0.00     0.000 C 
BRANCH   9  10
ATOM     10  C   UNL     1       3.345   0.906   2.397  1.00  0.00    -0.003 C 
ATOM     11  C   UNL     1       3.220   1.388   3.835  1.00  0.00     0.004 C 
ENDBRANCH   9  10
ENDBRANCH   8   9
ENDBRANCH   7   8
ENDBRANCH   6   7
ENDBRANCH   4   5
ENDBRANCH   3   4
ENDBRANCH   1   2
BRANCH   1  12
ATOM     12  C   UNL     1      -0.617  -0.730  -1.465  1.00  0.00     0.004 C 
BRANCH  12  13
ATOM     13  C   UNL     1      -1.667   0.180  -0.815  1.00  0.00     0.004 C 
BRANCH  13  14
ATOM     14  C   UNL     1      -3.050   0.069  -1.465  1.00  0.00     0.027 C 
BRANCH  14  15
ATOM     15  C   UNL     1      -3.687  -1.280  -1.284  1.00  0.00    -0.031 C 
ATOM     16  C   UNL     1      -4.621  -1.626  -0.382  1.00  0.00    -0.020 C 
BRANCH  16  17
ATOM     17  C   UNL     1      -5.226  -0.763   0.691  1.00  0.00     0.149 C 
BRANCH  17  18
ATOM     18  C   UNL     1      -6.719  -0.558   0.483  1.00  0.00     0.309 C 
ATOM     19  O   UNL     1      -7.438  -1.206  -0.265  1.00  0.00    -0.252 OA
BRANCH  18  20
ATOM     20  O   UNL     1      -7.154   0.446   1.302  1.00  0.00    -0.469 OA
ATOM     21  C   UNL     1      -8.553   0.711   1.200  1.00  0.00     0.282 C 
ENDBRANCH  18  20
ENDBRANCH  17  18
ENDBRANCH  16  17
ENDBRANCH  14  15
ENDBRANCH  13  14
ENDBRANCH  12  13
ENDBRANCH   1  12
TORSDOF 14
