REMARK SMILES CCCCCC/C=C\CCCCCCCC(=O)OC
REMARK SMILES IDX 10 1 9 2 8 3 7 4 6 5 5 6 4 7 3 8 2 9 1 10 11 11 12 12 13 13
REMARK SMILES IDX 14 14 15 15 16 16 17 17 18 18 19 19
REMARK H PARENT
ROOT
ATOM      1  C   UNL     1       0.845   0.199   1.536  1.00  0.00     0.004 C 
ENDROOT
BRANCH   1   2
ATOM      2  C   UNL     1      -0.652   0.431   1.766  1.00  0.00     0.027 C 
BRANCH   2   3
ATOM      3  C   UNL     1      -1.364  -0.787   2.285  1.00  0.00    -0.031 C 
ATOM      4  C   UNL     1      -2.296  -1.518   1.654  1.00  0.00    -0.031 C 
BRANCH   4   5
ATOM      5  C   UNL     1      -2.812  -1.327   0.255  1.00  0.00     0.027 C 
BRANCH   5   6
ATOM      6  C   UNL     1      -4.240  -0.779   0.261  1.00  0.00     0.004 C 
BRANCH   6   7
ATOM      7  C   UNL     1      -4.770  -0.603  -1.164  1.00  0.00     0.000 C 
BRANCH   7   8
ATOM      8  C   UNL     1      -6.235  -0.161  -1.219  1.00  0.00    -0.000 C 
BRANCH   8   9
ATOM      9  C   UNL     1      -6.468   1.243  -0.658  1.00  0.00    -0.003 C 
ATOM     10  C   UNL     1      -7.914   1.679  -0.841  1.00  0.00     0.004 C 
ENDBRANCH   8   9
ENDBRANCH   7   8
ENDBRANCH   6   7
ENDBRANCH   5   6
ENDBRANCH   4   5
ENDBRANCH   2   3
ENDBRANCH   1   2
BRANCH   1  11
ATOM     11  C   UNL     1       1.129  -0.757   0.372  1.00  0.00     0.000 C 
BRANCH  11  12
ATOM     12  C   UNL     1       2.622  -1.025   0.157  1.00  0.00     0.000 C 
BRANCH  12  13
ATOM     13  C   UNL     1       3.402   0.205  -0.311  1.00  0.00     0.001 C 
BRANCH  13  14
ATOM     14  C   UNL     1       4.857  -0.149  -0.625  1.00  0.00     0.012 C 
BRANCH  14  15
ATOM     15  C   UNL     1       5.638   1.075  -1.087  1.00  0.00     0.123 C 
BRANCH  15  16
ATOM     16  C   UNL     1       7.059   0.704  -1.424  1.00  0.00     0.305 C 
ATOM     17  O   UNL     1       7.460   0.477  -2.557  1.00  0.00    -0.252 OA
BRANCH  16  18
ATOM     18  O   UNL     1       7.814   0.640  -0.292  1.00  0.00    -0.469 OA
ATOM     19  C   UNL     1       9.175   0.277  -0.524  1.00  0.00     0.282 C 
ENDBRANCH  16  18
ENDBRANCH  15  16
ENDBRANCH  14  15
ENDBRANCH  13  14
ENDBRANCH  12  13
ENDBRANCH  11  12
ENDBRANCH   1  11
TORSDOF 14
