REMARK SMILES CCCCCCCCCCCCC(=O)O
REMARK SMILES IDX 8 1 7 2 6 3 5 4 4 5 3 6 2 7 1 8 9 9 10 10 11 11 12 12 13 13
REMARK SMILES IDX 14 14 15 15
REMARK H PARENT 15 16
ROOT
ATOM      1  C   UNL     1       1.158  -0.080  -0.115  1.00  0.00     0.000 C 
ENDROOT
BRANCH   1   2
ATOM      2  C   UNL     1      -0.309  -0.420   0.174  1.00  0.00     0.000 C 
BRANCH   2   3
ATOM      3  C   UNL     1      -0.945   0.481   1.236  1.00  0.00    -0.000 C 
BRANCH   3   4
ATOM      4  C   UNL     1      -2.411   0.139   1.524  1.00  0.00    -0.000 C 
BRANCH   4   5
ATOM      5  C   UNL     1      -3.349   0.432   0.350  1.00  0.00    -0.000 C 
BRANCH   5   6
ATOM      6  C   UNL     1      -4.810   0.184   0.737  1.00  0.00    -0.000 C 
BRANCH   6   7
ATOM      7  C   UNL     1      -5.802   0.558  -0.367  1.00  0.00    -0.003 C 
ATOM      8  C   UNL     1      -5.684  -0.310  -1.610  1.00  0.00     0.004 C 
ENDBRANCH   6   7
ENDBRANCH   5   6
ENDBRANCH   4   5
ENDBRANCH   3   4
ENDBRANCH   2   3
ENDBRANCH   1   2
BRANCH   1   9
ATOM      9  C   UNL     1       2.099  -0.411   1.047  1.00  0.00     0.000 C 
BRANCH   9  10
ATOM     10  C   UNL     1       3.565  -0.071   0.755  1.00  0.00     0.001 C 
BRANCH  10  11
ATOM     11  C   UNL     1       4.191  -0.955  -0.330  1.00  0.00     0.012 C 
BRANCH  11  12
ATOM     12  C   UNL     1       5.688  -0.691  -0.503  1.00  0.00     0.122 C 
BRANCH  12  13
ATOM     13  C   UNL     1       5.977   0.626  -1.172  1.00  0.00     0.303 C 
ATOM     14  O   UNL     1       5.196   1.346  -1.769  1.00  0.00    -0.252 OA
BRANCH  13  15
ATOM     15  O   UNL     1       7.280   0.961  -1.079  1.00  0.00    -0.481 OA
ATOM     16  H   UNL     1       7.339   1.813  -1.558  1.00  0.00     0.296 HD
ENDBRANCH  13  15
ENDBRANCH  12  13
ENDBRANCH  11  12
ENDBRANCH  10  11
ENDBRANCH   9  10
ENDBRANCH   1   9
TORSDOF 12
