REMARK SMILES CCCCCCCCCCCCCCCCCCCCC(=O)O
REMARK SMILES IDX 12 1 11 2 10 3 9 4 8 5 7 6 6 7 5 8 4 9 3 10 2 11 1 12 13 13
REMARK SMILES IDX 14 14 15 15 16 16 17 17 18 18 19 19 20 20 21 21 22 22 23 23
REMARK H PARENT 23 24
ROOT
ATOM      1  C   UNL     1      -0.614   0.279  -3.115  1.00  0.00     0.000 C 
ENDROOT
BRANCH   1   2
ATOM      2  C   UNL     1      -1.387  -0.320  -4.295  1.00  0.00     0.000 C 
BRANCH   2   3
ATOM      3  C   UNL     1      -2.325  -1.488  -3.966  1.00  0.00     0.000 C 
BRANCH   3   4
ATOM      4  C   UNL     1      -3.307  -1.184  -2.833  1.00  0.00    -0.000 C 
BRANCH   4   5
ATOM      5  C   UNL     1      -4.331  -2.309  -2.659  1.00  0.00    -0.000 C 
BRANCH   5   6
ATOM      6  C   UNL     1      -5.246  -2.090  -1.448  1.00  0.00    -0.000 C 
BRANCH   6   7
ATOM      7  C   UNL     1      -4.880  -2.934  -0.222  1.00  0.00    -0.000 C 
BRANCH   7   8
ATOM      8  C   UNL     1      -3.498  -2.683   0.386  1.00  0.00    -0.000 C 
BRANCH   8   9
ATOM      9  C   UNL     1      -3.346  -1.290   1.001  1.00  0.00    -0.000 C 
BRANCH   9  10
ATOM     10  C   UNL     1      -1.962  -1.120   1.632  1.00  0.00    -0.000 C 
BRANCH  10  11
ATOM     11  C   UNL     1      -1.769   0.291   2.187  1.00  0.00    -0.003 C 
ATOM     12  C   UNL     1      -0.400   0.453   2.831  1.00  0.00     0.004 C 
ENDBRANCH  10  11
ENDBRANCH   9  10
ENDBRANCH   8   9
ENDBRANCH   7   8
ENDBRANCH   6   7
ENDBRANCH   5   6
ENDBRANCH   4   5
ENDBRANCH   3   4
ENDBRANCH   2   3
ENDBRANCH   1   2
BRANCH   1  13
ATOM     13  C   UNL     1       0.292  -0.726  -2.399  1.00  0.00     0.000 C 
BRANCH  13  14
ATOM     14  C   UNL     1       0.964  -0.143  -1.151  1.00  0.00     0.000 C 
BRANCH  14  15
ATOM     15  C   UNL     1       2.034   0.905  -1.462  1.00  0.00     0.000 C 
BRANCH  15  16
ATOM     16  C   UNL     1       2.634   1.548  -0.205  1.00  0.00     0.000 C 
BRANCH  16  17
ATOM     17  C   UNL     1       3.458   0.578   0.645  1.00  0.00     0.000 C 
BRANCH  17  18
ATOM     18  C   UNL     1       4.028   1.219   1.915  1.00  0.00     0.001 C 
BRANCH  18  19
ATOM     19  C   UNL     1       5.083   2.291   1.639  1.00  0.00     0.012 C 
BRANCH  19  20
ATOM     20  C   UNL     1       5.699   2.806   2.935  1.00  0.00     0.122 C 
BRANCH  20  21
ATOM     21  C   UNL     1       6.746   3.842   2.648  1.00  0.00     0.303 C 
ATOM     22  O   UNL     1       7.947   3.650   2.557  1.00  0.00    -0.252 OA
BRANCH  21  23
ATOM     23  O   UNL     1       6.228   5.070   2.463  1.00  0.00    -0.481 OA
ATOM     24  H   UNL     1       7.009   5.632   2.274  1.00  0.00     0.296 HD
ENDBRANCH  21  23
ENDBRANCH  20  21
ENDBRANCH  19  20
ENDBRANCH  18  19
ENDBRANCH  17  18
ENDBRANCH  16  17
ENDBRANCH  15  16
ENDBRANCH  14  15
ENDBRANCH  13  14
ENDBRANCH   1  13
TORSDOF 20
