REMARK SMILES CCCCCC/C=C\C=C\CCCCCCCC(=O)O
REMARK SMILES IDX 11 1 10 2 9 3 8 4 7 5 6 6 5 7 4 8 3 9 2 10 1 11 12 12 13 13
REMARK SMILES IDX 14 14 15 15 16 16 17 17 18 18 19 19 20 20
REMARK H PARENT 20 21
ROOT
ATOM      1  C   UNL     1      -1.195  -0.182  -0.434  1.00  0.00     0.027 C 
ENDROOT
BRANCH   1   2
ATOM      2  C   UNL     1      -0.360   1.063  -0.552  1.00  0.00    -0.027 C 
ATOM      3  C   UNL     1       0.936   1.060  -0.900  1.00  0.00    -0.005 C 
BRANCH   3   4
ATOM      4  C   UNL     1       1.720   2.269  -0.996  1.00  0.00    -0.005 C 
ATOM      5  C   UNL     1       3.013   2.356  -1.345  1.00  0.00    -0.027 C 
BRANCH   5   6
ATOM      6  C   UNL     1       3.951   1.251  -1.745  1.00  0.00     0.027 C 
BRANCH   6   7
ATOM      7  C   UNL     1       5.086   1.035  -0.737  1.00  0.00     0.004 C 
BRANCH   7   8
ATOM      8  C   UNL     1       4.593   0.496   0.611  1.00  0.00     0.000 C 
BRANCH   8   9
ATOM      9  C   UNL     1       5.737   0.182   1.582  1.00  0.00    -0.000 C 
BRANCH   9  10
ATOM     10  C   UNL     1       6.155  -1.291   1.618  1.00  0.00    -0.003 C 
ATOM     11  C   UNL     1       6.734  -1.812   0.314  1.00  0.00     0.004 C 
ENDBRANCH   9  10
ENDBRANCH   8   9
ENDBRANCH   7   8
ENDBRANCH   6   7
ENDBRANCH   5   6
ENDBRANCH   3   4
ENDBRANCH   1   2
BRANCH   1  12
ATOM     12  C   UNL     1      -2.347  -0.171  -1.443  1.00  0.00     0.004 C 
BRANCH  12  13
ATOM     13  C   UNL     1      -3.236  -1.417  -1.351  1.00  0.00     0.000 C 
BRANCH  13  14
ATOM     14  C   UNL     1      -4.511  -1.233  -0.519  1.00  0.00     0.000 C 
BRANCH  14  15
ATOM     15  C   UNL     1      -4.256  -0.956   0.961  1.00  0.00     0.001 C 
BRANCH  15  16
ATOM     16  C   UNL     1      -5.516  -1.024   1.835  1.00  0.00     0.012 C 
BRANCH  16  17
ATOM     17  C   UNL     1      -6.543   0.071   1.544  1.00  0.00     0.122 C 
BRANCH  17  18
ATOM     18  C   UNL     1      -7.503  -0.285   0.439  1.00  0.00     0.303 C 
ATOM     19  O   UNL     1      -7.790  -1.398   0.035  1.00  0.00    -0.252 OA
BRANCH  18  20
ATOM     20  O   UNL     1      -8.095   0.806  -0.085  1.00  0.00    -0.481 OA
ATOM     21  H   UNL     1      -8.699   0.442  -0.766  1.00  0.00     0.296 HD
ENDBRANCH  18  20
ENDBRANCH  17  18
ENDBRANCH  16  17
ENDBRANCH  15  16
ENDBRANCH  14  15
ENDBRANCH  13  14
ENDBRANCH  12  13
ENDBRANCH   1  12
TORSDOF 15
