REMARK SMILES CCCCCC/C=C\CCCCCCCCC(=O)O
REMARK SMILES IDX 10 1 9 2 8 3 7 4 6 5 5 6 4 7 3 8 2 9 1 10 11 11 12 12 13 13
REMARK SMILES IDX 14 14 15 15 16 16 17 17 18 18 19 19
REMARK H PARENT 19 20
ROOT
ATOM      1  C   UNL     1       0.910  -0.591  -1.355  1.00  0.00     0.004 C 
ENDROOT
BRANCH   1   2
ATOM      2  C   UNL     1      -0.484  -1.210  -1.209  1.00  0.00     0.027 C 
BRANCH   2   3
ATOM      3  C   UNL     1      -1.001  -1.258   0.200  1.00  0.00    -0.031 C 
ATOM      4  C   UNL     1      -1.688  -0.296   0.838  1.00  0.00    -0.031 C 
BRANCH   4   5
ATOM      5  C   UNL     1      -2.046   1.064   0.307  1.00  0.00     0.027 C 
BRANCH   5   6
ATOM      6  C   UNL     1      -3.560   1.275   0.183  1.00  0.00     0.004 C 
BRANCH   6   7
ATOM      7  C   UNL     1      -4.200   0.384  -0.884  1.00  0.00     0.000 C 
BRANCH   7   8
ATOM      8  C   UNL     1      -5.662   0.728  -1.194  1.00  0.00    -0.000 C 
BRANCH   8   9
ATOM      9  C   UNL     1      -6.632   0.515  -0.028  1.00  0.00    -0.003 C 
ATOM     10  C   UNL     1      -6.919   1.788   0.755  1.00  0.00     0.004 C 
ENDBRANCH   8   9
ENDBRANCH   7   8
ENDBRANCH   6   7
ENDBRANCH   5   6
ENDBRANCH   4   5
ENDBRANCH   2   3
ENDBRANCH   1   2
BRANCH   1  11
ATOM     11  C   UNL     1       2.086  -1.515  -1.017  1.00  0.00     0.000 C 
BRANCH  11  12
ATOM     12  C   UNL     1       2.242  -1.820   0.475  1.00  0.00     0.000 C 
BRANCH  12  13
ATOM     13  C   UNL     1       3.577  -2.501   0.805  1.00  0.00     0.000 C 
BRANCH  13  14
ATOM     14  C   UNL     1       4.656  -1.556   1.343  1.00  0.00     0.001 C 
BRANCH  14  15
ATOM     15  C   UNL     1       5.106  -0.486   0.350  1.00  0.00     0.012 C 
BRANCH  15  16
ATOM     16  C   UNL     1       6.269   0.329   0.903  1.00  0.00     0.122 C 
BRANCH  16  17
ATOM     17  C   UNL     1       6.710   1.363  -0.091  1.00  0.00     0.303 C 
ATOM     18  O   UNL     1       7.609   1.246  -0.905  1.00  0.00    -0.252 OA
BRANCH  17  19
ATOM     19  O   UNL     1       5.975   2.490  -0.032  1.00  0.00    -0.481 OA
ATOM     20  H   UNL     1       6.356   3.059  -0.732  1.00  0.00     0.296 HD
ENDBRANCH  17  19
ENDBRANCH  16  17
ENDBRANCH  15  16
ENDBRANCH  14  15
ENDBRANCH  13  14
ENDBRANCH  12  13
ENDBRANCH  11  12
ENDBRANCH   1  11
TORSDOF 15
