REMARK SMILES CCCCCCCCCCCCCCCC(=O)OC
REMARK SMILES IDX 9 1 8 2 7 3 6 4 5 5 4 6 3 7 2 8 1 9 10 10 11 11 12 12 13 13
REMARK SMILES IDX 14 14 15 15 16 16 17 17 18 18 19 19
REMARK H PARENT
ROOT
ATOM      1  C   UNL     1       0.268   1.496   0.402  1.00  0.00     0.000 C 
ENDROOT
BRANCH   1   2
ATOM      2  C   UNL     1       1.264   2.481   1.024  1.00  0.00     0.000 C 
BRANCH   2   3
ATOM      3  C   UNL     1       2.094   1.945   2.195  1.00  0.00    -0.000 C 
BRANCH   3   4
ATOM      4  C   UNL     1       2.892   0.668   1.915  1.00  0.00    -0.000 C 
BRANCH   4   5
ATOM      5  C   UNL     1       3.915   0.825   0.789  1.00  0.00    -0.000 C 
BRANCH   5   6
ATOM      6  C   UNL     1       4.753  -0.445   0.621  1.00  0.00    -0.000 C 
BRANCH   6   7
ATOM      7  C   UNL     1       5.775  -0.292  -0.507  1.00  0.00    -0.000 C 
BRANCH   7   8
ATOM      8  C   UNL     1       6.612  -1.560  -0.674  1.00  0.00    -0.003 C 
ATOM      9  C   UNL     1       7.628  -1.412  -1.795  1.00  0.00     0.004 C 
ENDBRANCH   7   8
ENDBRANCH   6   7
ENDBRANCH   5   6
ENDBRANCH   4   5
ENDBRANCH   3   4
ENDBRANCH   2   3
ENDBRANCH   1   2
BRANCH   1  10
ATOM     10  C   UNL     1      -0.799   1.009   1.386  1.00  0.00     0.000 C 
BRANCH  10  11
ATOM     11  C   UNL     1      -1.790   0.016   0.769  1.00  0.00     0.000 C 
BRANCH  11  12
ATOM     12  C   UNL     1      -2.717   0.649  -0.273  1.00  0.00     0.000 C 
BRANCH  12  13
ATOM     13  C   UNL     1      -3.707  -0.345  -0.891  1.00  0.00     0.001 C 
BRANCH  13  14
ATOM     14  C   UNL     1      -4.758  -0.855   0.100  1.00  0.00     0.012 C 
BRANCH  14  15
ATOM     15  C   UNL     1      -5.775  -1.784  -0.559  1.00  0.00     0.123 C 
BRANCH  15  16
ATOM     16  C   UNL     1      -6.683  -1.060  -1.522  1.00  0.00     0.305 C 
ATOM     17  O   UNL     1      -6.650  -1.204  -2.736  1.00  0.00    -0.252 OA
BRANCH  16  18
ATOM     18  O   UNL     1      -7.536  -0.239  -0.849  1.00  0.00    -0.469 OA
ATOM     19  C   UNL     1      -8.428   0.488  -1.695  1.00  0.00     0.282 C 
ENDBRANCH  16  18
ENDBRANCH  15  16
ENDBRANCH  14  15
ENDBRANCH  13  14
ENDBRANCH  12  13
ENDBRANCH  11  12
ENDBRANCH  10  11
ENDBRANCH   1  10
TORSDOF 15
