REMARK SMILES CC/C=C\C/C=C\C/C=C\C/C=C\CCC(=O)OC
REMARK SMILES IDX 9 1 10 2 8 3 7 4 6 5 5 6 4 7 3 8 2 9 1 10 11 11 12 12 13 13
REMARK SMILES IDX 14 14 15 15 16 16 17 17 18 18 19 19
REMARK H PARENT
ROOT
ATOM      1  C   UNL     1       0.546  -0.921  -2.442  1.00  0.00    -0.027 C 
ATOM      2  C   UNL     1      -0.510  -1.692  -2.752  1.00  0.00    -0.027 C 
ENDROOT
BRANCH   1   3
ATOM      3  C   UNL     1       0.552   0.389  -1.707  1.00  0.00     0.054 C 
BRANCH   3   4
ATOM      4  C   UNL     1       1.197   0.240  -0.359  1.00  0.00    -0.027 C 
ATOM      5  C   UNL     1       2.318   0.828   0.093  1.00  0.00    -0.027 C 
BRANCH   5   6
ATOM      6  C   UNL     1       3.213   1.795  -0.628  1.00  0.00     0.054 C 
BRANCH   6   7
ATOM      7  C   UNL     1       4.553   1.174  -0.905  1.00  0.00    -0.027 C 
ATOM      8  C   UNL     1       5.751   1.533  -0.415  1.00  0.00    -0.031 C 
BRANCH   8   9
ATOM      9  C   UNL     1       6.058   2.656   0.533  1.00  0.00     0.023 C 
ATOM     10  C   UNL     1       6.521   2.128   1.882  1.00  0.00     0.008 C 
ENDBRANCH   8   9
ENDBRANCH   6   7
ENDBRANCH   5   6
ENDBRANCH   3   4
ENDBRANCH   1   3
BRANCH   2  11
ATOM     11  C   UNL     1      -1.958  -1.439  -2.447  1.00  0.00     0.054 C 
BRANCH  11  12
ATOM     12  C   UNL     1      -2.490  -2.449  -1.471  1.00  0.00    -0.027 C 
ATOM     13  C   UNL     1      -2.875  -2.238  -0.201  1.00  0.00    -0.030 C 
BRANCH  13  14
ATOM     14  C   UNL     1      -2.816  -0.946   0.568  1.00  0.00     0.039 C 
BRANCH  14  15
ATOM     15  C   UNL     1      -4.179  -0.269   0.685  1.00  0.00     0.127 C 
BRANCH  15  16
ATOM     16  C   UNL     1      -5.118  -0.990   1.623  1.00  0.00     0.305 C 
ATOM     17  O   UNL     1      -4.796  -1.846   2.434  1.00  0.00    -0.252 OA
BRANCH  16  18
ATOM     18  O   UNL     1      -6.384  -0.513   1.451  1.00  0.00    -0.469 OA
ATOM     19  C   UNL     1      -7.354  -1.121   2.304  1.00  0.00     0.282 C 
ENDBRANCH  16  18
ENDBRANCH  15  16
ENDBRANCH  14  15
ENDBRANCH  13  14
ENDBRANCH  11  12
ENDBRANCH   2  11
TORSDOF 11
