REMARK SMILES CCC=CCC=CCC=CCCCCCCCC(=O)OC
REMARK SMILES IDX 12 1 11 2 10 3 9 4 8 5 7 6 6 7 5 8 4 9 3 10 2 11 1 12 13 13
REMARK SMILES IDX 14 14 15 15 16 16 17 17 18 18 19 19 20 20 21 21
REMARK H PARENT
ROOT
ATOM      1  C   UNL     1       1.573   2.104  -0.104  1.00  0.00     0.004 C 
ENDROOT
BRANCH   1   2
ATOM      2  C   UNL     1       0.610   0.932   0.118  1.00  0.00     0.027 C 
BRANCH   2   3
ATOM      3  C   UNL     1      -0.432   1.211   1.164  1.00  0.00    -0.031 C 
ATOM      4  C   UNL     1      -1.720   1.534   0.956  1.00  0.00    -0.027 C 
BRANCH   4   5
ATOM      5  C   UNL     1      -2.405   1.755  -0.363  1.00  0.00     0.054 C 
BRANCH   5   6
ATOM      6  C   UNL     1      -3.374   0.676  -0.770  1.00  0.00    -0.027 C 
ATOM      7  C   UNL     1      -3.605  -0.499  -0.159  1.00  0.00    -0.027 C 
BRANCH   7   8
ATOM      8  C   UNL     1      -4.592  -1.520  -0.647  1.00  0.00     0.054 C 
BRANCH   8   9
ATOM      9  C   UNL     1      -5.688  -1.739   0.356  1.00  0.00    -0.027 C 
ATOM     10  C   UNL     1      -6.971  -1.350   0.264  1.00  0.00    -0.031 C 
BRANCH  10  11
ATOM     11  C   UNL     1      -7.602  -0.554  -0.841  1.00  0.00     0.023 C 
ATOM     12  C   UNL     1      -8.559  -1.405  -1.660  1.00  0.00     0.008 C 
ENDBRANCH  10  11
ENDBRANCH   8   9
ENDBRANCH   7   8
ENDBRANCH   5   6
ENDBRANCH   4   5
ENDBRANCH   2   3
ENDBRANCH   1   2
BRANCH   1  13
ATOM     13  C   UNL     1       2.401   2.520   1.114  1.00  0.00     0.000 C 
BRANCH  13  14
ATOM     14  C   UNL     1       3.313   1.448   1.720  1.00  0.00     0.000 C 
BRANCH  14  15
ATOM     15  C   UNL     1       4.485   1.021   0.828  1.00  0.00     0.001 C 
BRANCH  15  16
ATOM     16  C   UNL     1       4.198  -0.240   0.005  1.00  0.00     0.012 C 
BRANCH  16  17
ATOM     17  C   UNL     1       5.401  -0.673  -0.835  1.00  0.00     0.123 C 
BRANCH  17  18
ATOM     18  C   UNL     1       6.515  -1.279  -0.012  1.00  0.00     0.305 C 
ATOM     19  O   UNL     1       6.412  -1.677   1.140  1.00  0.00    -0.252 OA
BRANCH  18  20
ATOM     20  O   UNL     1       7.651  -1.342  -0.763  1.00  0.00    -0.469 OA
ATOM     21  C   UNL     1       8.767  -1.916  -0.081  1.00  0.00     0.282 C 
ENDBRANCH  18  20
ENDBRANCH  17  18
ENDBRANCH  16  17
ENDBRANCH  15  16
ENDBRANCH  14  15
ENDBRANCH  13  14
ENDBRANCH   1  13
TORSDOF 14
