REMARK SMILES C=CC(=C)CCC[C@@H](C)CCC[C@H](C)CCCC(C)C
REMARK SMILES IDX 11 1 12 2 13 3 14 4 15 5 16 6 17 7 18 8 19 9 20 10 10 11
REMARK SMILES IDX 8 12 9 13 7 14 6 15 5 16 3 17 4 18 2 19 1 20
REMARK H PARENT
ROOT
ATOM      1  C   UNL     1      -0.055   3.409  -0.747  1.00  0.00     0.001 C 
ENDROOT
BRANCH   1   2
ATOM      2  C   UNL     1      -1.313   2.830  -0.087  1.00  0.00     0.003 C 
BRANCH   2   3
ATOM      3  C   UNL     1      -1.765   1.440  -0.591  1.00  0.00    -0.014 C 
ATOM      4  C   UNL     1      -2.130   1.474  -2.077  1.00  0.00     0.007 C 
BRANCH   3   5
ATOM      5  C   UNL     1      -2.949   0.955   0.277  1.00  0.00     0.003 C 
BRANCH   5   6
ATOM      6  C   UNL     1      -3.446  -0.449  -0.087  1.00  0.00     0.001 C 
BRANCH   6   7
ATOM      7  C   UNL     1      -4.633  -0.859   0.792  1.00  0.00     0.003 C 
BRANCH   7   8
ATOM      8  C   UNL     1      -5.193  -2.253   0.455  1.00  0.00    -0.017 C 
ATOM      9  C   UNL     1      -5.692  -2.351  -0.987  1.00  0.00     0.007 C 
ATOM     10  C   UNL     1      -6.331  -2.601   1.419  1.00  0.00     0.007 C 
ENDBRANCH   7   8
ENDBRANCH   6   7
ENDBRANCH   5   6
ENDBRANCH   3   5
ENDBRANCH   2   3
ENDBRANCH   1   2
BRANCH   1  11
ATOM     11  C   UNL     1       1.206   2.541  -0.648  1.00  0.00     0.003 C 
BRANCH  11  12
ATOM     12  C   UNL     1       1.742   2.298   0.779  1.00  0.00    -0.014 C 
ATOM     13  C   UNL     1       2.048   3.618   1.496  1.00  0.00     0.007 C 
BRANCH  12  14
ATOM     14  C   UNL     1       3.017   1.425   0.770  1.00  0.00     0.003 C 
BRANCH  14  15
ATOM     15  C   UNL     1       2.811   0.042   0.139  1.00  0.00     0.005 C 
BRANCH  15  16
ATOM     16  C   UNL     1       4.090  -0.805   0.230  1.00  0.00     0.035 C 
BRANCH  16  17
ATOM     17  C   UNL     1       4.031  -2.216  -0.333  1.00  0.00    -0.056 C 
ATOM     18  C   UNL     1       2.943  -2.735  -0.931  1.00  0.00     0.012 C 
BRANCH  17  19
ATOM     19  C   UNL     1       5.225  -3.052  -0.215  1.00  0.00    -0.005 C 
ATOM     20  C   UNL     1       6.393  -2.713   0.344  1.00  0.00     0.009 C 
ENDBRANCH  17  19
ENDBRANCH  16  17
ENDBRANCH  15  16
ENDBRANCH  14  15
ENDBRANCH  12  14
ENDBRANCH  11  12
ENDBRANCH   1  11
TORSDOF 13
